V -t * -v 1.0a5 -a 0
A -t * -n 1 -p 0 -o 0x7fffffff -c 30 -a 1
A -t * -h 1 -m 1073741823 -s 0
n -t * -a 4 -s 4 -S UP -v circle -c black -i black
n -t * -a 0 -s 0 -S UP -v circle -c black -i black
n -t * -a 5 -s 5 -S UP -v circle -c black -i black
n -t * -a 1 -s 1 -S UP -v circle -c black -i black
n -t * -a 6 -s 6 -S UP -v circle -c black -i black
n -t * -a 2 -s 2 -S UP -v circle -c black -i black
n -t * -a 7 -s 7 -S UP -v circle -c black -i black
n -t * -a 3 -s 3 -S UP -v circle -c black -i black
l -t * -s 0 -d 3 -S UP -r 2000000 -D 0.01 -c black
l -t * -s 1 -d 3 -S UP -r 2000000 -D 0.01 -c black
l -t * -s 2 -d 3 -S UP -r 2000000 -D 0.01 -c black
l -t * -s 3 -d 4 -S UP -r 1000000 -D 0.01 -c black
l -t * -s 4 -d 5 -S UP -r 2000000 -D 0.01 -c black
l -t * -s 4 -d 6 -S UP -r 2000000 -D 0.01 -c black
l -t * -s 4 -d 7 -S UP -r 2000000 -D 0.01 -c black
+ -t 0.1 -s 0 -d 3 -p tcp -e 40 -c 1 -i 0 -a 1 -x {0.0 5.0 0 ------- null}
- -t 0.1 -s 0 -d 3 -p tcp -e 40 -c 1 -i 0 -a 1 -x {0.0 5.0 0 ------- null}
h -t 0.1 -s 0 -d 3 -p tcp -e 40 -c 1 -i 0 -a 1 -x {0.0 5.0 -1 ------- null}
r -t 0.11016 -s 0 -d 3 -p tcp -e 40 -c 1 -i 0 -a 1 -x {0.0 5.0 0 ------- null}
+ -t 0.11016 -s 3 -d 4 -p tcp -e 40 -c 1 -i 0 -a 1 -x {0.0 5.0 0 ------- null}
- -t 0.11016 -s 3 -d 4 -p tcp -e 40 -c 1 -i 0 -a 1 -x {0.0 5.0 0 ------- null}
h -t 0.11016 -s 3 -d 4 -p tcp -e 40 -c 1 -i 0 -a 1 -x {0.0 5.0 -1 ------- null}
r -t 0.12048 -s 3 -d 4 -p tcp -e 40 -c 1 -i 0 -a 1 -x {0.0 5.0 0 ------- null}
+ -t 0.12048 -s 4 -d 5 -p tcp -e 40 -c 1 -i 0 -a 1 -x {0.0 5.0 0 ------- null}
- -t 0.12048 -s 4 -d 5 -p tcp -e 40 -c 1 -i 0 -a 1 -x {0.0 5.0 0 ------- null}
h -t 0.12048 -s 4 -d 5 -p tcp -e 40 -c 1 -i 0 -a 1 -x {0.0 5.0 -1 ------- null}
r -t 0.13064 -s 4 -d 5 -p tcp -e 40 -c 1 -i 0 -a 1 -x {0.0 5.0 0 ------- null}
+ -t 0.13064 -s 5 -d 4 -p ack -e 40 -c 1 -i 1 -a 1 -x {5.0 0.0 0 ------- null}
- -t 0.13064 -s 5 -d 4 -p ack -e 40 -c 1 -i 1 -a 1 -x {5.0 0.0 0 ------- null}
h -t 0.13064 -s 5 -d 4 -p ack -e 40 -c 1 -i 1 -a 1 -x {5.0 0.0 -1 ------- null}
r -t 0.1408 -s 5 -d 4 -p ack -e 40 -c 1 -i 1 -a 1 -x {5.0 0.0 0 ------- null}
+ -t 0.1408 -s 4 -d 3 -p ack -e 40 -c 1 -i 1 -a 1 -x {5.0 0.0 0 ------- null}
- -t 0.1408 -s 4 -d 3 -p ack -e 40 -c 1 -i 1 -a 1 -x {5.0 0.0 0 ------- null}
h -t 0.1408 -s 4 -d 3 -p ack -e 40 -c 1 -i 1 -a 1 -x {5.0 0.0 -1 ------- null}
r -t 0.15112 -s 4 -d 3 -p ack -e 40 -c 1 -i 1 -a 1 -x {5.0 0.0 0 ------- null}
+ -t 0.15112 -s 3 -d 0 -p ack -e 40 -c 1 -i 1 -a 1 -x {5.0 0.0 0 ------- null}
- -t 0.15112 -s 3 -d 0 -p ack -e 40 -c 1 -i 1 -a 1 -x {5.0 0.0 0 ------- null}
h -t 0.15112 -s 3 -d 0 -p ack -e 40 -c 1 -i 1 -a 1 -x {5.0 0.0 -1 ------- null}
r -t 0.16128 -s 3 -d 0 -p ack -e 40 -c 1 -i 1 -a 1 -x {5.0 0.0 0 ------- null}
+ -t 0.16128 -s 0 -d 3 -p tcp -e 1040 -c 1 -i 2 -a 1 -x {0.0 5.0 1 ------- null}
- -t 0.16128 -s 0 -d 3 -p tcp -e 1040 -c 1 -i 2 -a 1 -x {0.0 5.0 1 ------- null}
h -t 0.16128 -s 0 -d 3 -p tcp -e 1040 -c 1 -i 2 -a 1 -x {0.0 5.0 -1 ------- null}
+ -t 0.16128 -s 0 -d 3 -p tcp -e 1040 -c 1 -i 3 -a 1 -x {0.0 5.0 2 ------- null}
- -t 0.16544 -s 0 -d 3 -p tcp -e 1040 -c 1 -i 3 -a 1 -x {0.0 5.0 2 ------- null}
h -t 0.16544 -s 0 -d 3 -p tcp -e 1040 -c 1 -i 3 -a 1 -x {0.0 5.0 -1 ------- null}
r -t 0.17544 -s 0 -d 3 -p tcp -e 1040 -c 1 -i 2 -a 1 -x {0.0 5.0 1 ------- null}
+ -t 0.17544 -s 3 -d 4 -p tcp -e 1040 -c 1 -i 2 -a 1 -x {0.0 5.0 1 ------- null}
- -t 0.17544 -s 3 -d 4 -p tcp -e 1040 -c 1 -i 2 -a 1 -x {0.0 5.0 1 ------- null}
h -t 0.17544 -s 3 -d 4 -p tcp -e 1040 -c 1 -i 2 -a 1 -x {0.0 5.0 -1 ------- null}
r -t 0.1796 -s 0 -d 3 -p tcp -e 1040 -c 1 -i 3 -a 1 -x {0.0 5.0 2 ------- null}
+ -t 0.1796 -s 3 -d 4 -p tcp -e 1040 -c 1 -i 3 -a 1 -x {0.0 5.0 2 ------- null}
- -t 0.18376 -s 3 -d 4 -p tcp -e 1040 -c 1 -i 3 -a 1 -x {0.0 5.0 2 ------- null}
h -t 0.18376 -s 3 -d 4 -p tcp -e 1040 -c 1 -i 3 -a 1 -x {0.0 5.0 -1 ------- null}
r -t 0.19376 -s 3 -d 4 -p tcp -e 1040 -c 1 -i 2 -a 1 -x {0.0 5.0 1 ------- null}
+ -t 0.19376 -s 4 -d 5 -p tcp -e 1040 -c 1 -i 2 -a 1 -x {0.0 5.0 1 ------- null}
- -t 0.19376 -s 4 -d 5 -p tcp -e 1040 -c 1 -i 2 -a 1 -x {0.0 5.0 1 ------- null}
h -t 0.19376 -s 4 -d 5 -p tcp -e 1040 -c 1 -i 2 -a 1 -x {0.0 5.0 -1 ------- null}
r -t 0.20208 -s 3 -d 4 -p tcp -e 1040 -c 1 -i 3 -a 1 -x {0.0 5.0 2 ------- null}
+ -t 0.20208 -s 4 -d 5 -p tcp -e 1040 -c 1 -i 3 -a 1 -x {0.0 5.0 2 ------- null}
- -t 0.20208 -s 4 -d 5 -p tcp -e 1040 -c 1 -i 3 -a 1 -x {0.0 5.0 2 ------- null}
h -t 0.20208 -s 4 -d 5 -p tcp -e 1040 -c 1 -i 3 -a 1 -x {0.0 5.0 -1 ------- null}
r -t 0.20792 -s 4 -d 5 -p tcp -e 1040 -c 1 -i 2 -a 1 -x {0.0 5.0 1 ------- null}
+ -t 0.20792 -s 5 -d 4 -p ack -e 40 -c 1 -i 4 -a 1 -x {5.0 0.0 1 ------- null}
- -t 0.20792 -s 5 -d 4 -p ack -e 40 -c 1 -i 4 -a 1 -x {5.0 0.0 1 ------- null}
h -t 0.20792 -s 5 -d 4 -p ack -e 40 -c 1 -i 4 -a 1 -x {5.0 0.0 -1 ------- null}
r -t 0.21624 -s 4 -d 5 -p tcp -e 1040 -c 1 -i 3 -a 1 -x {0.0 5.0 2 ------- null}
+ -t 0.21624 -s 5 -d 4 -p ack -e 40 -c 1 -i 5 -a 1 -x {5.0 0.0 2 ------- null}
- -t 0.21624 -s 5 -d 4 -p ack -e 40 -c 1 -i 5 -a 1 -x {5.0 0.0 2 ------- null}
h -t 0.21624 -s 5 -d 4 -p ack -e 40 -c 1 -i 5 -a 1 -x {5.0 0.0 -1 ------- null}
r -t 0.21808 -s 5 -d 4 -p ack -e 40 -c 1 -i 4 -a 1 -x {5.0 0.0 1 ------- null}
+ -t 0.21808 -s 4 -d 3 -p ack -e 40 -c 1 -i 4 -a 1 -x {5.0 0.0 1 ------- null}
- -t 0.21808 -s 4 -d 3 -p ack -e 40 -c 1 -i 4 -a 1 -x {5.0 0.0 1 ------- null}
h -t 0.21808 -s 4 -d 3 -p ack -e 40 -c 1 -i 4 -a 1 -x {5.0 0.0 -1 ------- null}
r -t 0.2264 -s 5 -d 4 -p ack -e 40 -c 1 -i 5 -a 1 -x {5.0 0.0 2 ------- null}
+ -t 0.2264 -s 4 -d 3 -p ack -e 40 -c 1 -i 5 -a 1 -x {5.0 0.0 2 ------- null}
- -t 0.2264 -s 4 -d 3 -p ack -e 40 -c 1 -i 5 -a 1 -x {5.0 0.0 2 ------- null}
h -t 0.2264 -s 4 -d 3 -p ack -e 40 -c 1 -i 5 -a 1 -x {5.0 0.0 -1 ------- null}
r -t 0.2284 -s 4 -d 3 -p ack -e 40 -c 1 -i 4 -a 1 -x {5.0 0.0 1 ------- null}
+ -t 0.2284 -s 3 -d 0 -p ack -e 40 -c 1 -i 4 -a 1 -x {5.0 0.0 1 ------- null}
- -t 0.2284 -s 3 -d 0 -p ack -e 40 -c 1 -i 4 -a 1 -x {5.0 0.0 1 ------- null}
h -t 0.2284 -s 3 -d 0 -p ack -e 40 -c 1 -i 4 -a 1 -x {5.0 0.0 -1 ------- null}
r -t 0.23672 -s 4 -d 3 -p ack -e 40 -c 1 -i 5 -a 1 -x {5.0 0.0 2 ------- null}
+ -t 0.23672 -s 3 -d 0 -p ack -e 40 -c 1 -i 5 -a 1 -x {5.0 0.0 2 ------- null}
- -t 0.23672 -s 3 -d 0 -p ack -e 40 -c 1 -i 5 -a 1 -x {5.0 0.0 2 ------- null}
h -t 0.23672 -s 3 -d 0 -p ack -e 40 -c 1 -i 5 -a 1 -x {5.0 0.0 -1 ------- null}
r -t 0.23856 -s 3 -d 0 -p ack -e 40 -c 1 -i 4 -a 1 -x {5.0 0.0 1 ------- null}
+ -t 0.23856 -s 0 -d 3 -p tcp -e 1040 -c 1 -i 6 -a 1 -x {0.0 5.0 3 ------- null}
- -t 0.23856 -s 0 -d 3 -p tcp -e 1040 -c 1 -i 6 -a 1 -x {0.0 5.0 3 ------- null}
h -t 0.23856 -s 0 -d 3 -p tcp -e 1040 -c 1 -i 6 -a 1 -x {0.0 5.0 -1 ------- null}
+ -t 0.23856 -s 0 -d 3 -p tcp -e 1040 -c 1 -i 7 -a 1 -x {0.0 5.0 4 ------- null}
- -t 0.24272 -s 0 -d 3 -p tcp -e 1040 -c 1 -i 7 -a 1 -x {0.0 5.0 4 ------- null}
h -t 0.24272 -s 0 -d 3 -p tcp -e 1040 -c 1 -i 7 -a 1 -x {0.0 5.0 -1 ------- null}
r -t 0.24688 -s 3 -d 0 -p ack -e 40 -c 1 -i 5 -a 1 -x {5.0 0.0 2 ------- null}
+ -t 0.24688 -s 0 -d 3 -p tcp -e 1040 -c 1 -i 8 -a 1 -x {0.0 5.0 5 ------- null}
+ -t 0.24688 -s 0 -d 3 -p tcp -e 1040 -c 1 -i 9 -a 1 -x {0.0 5.0 6 ------- null}
- -t 0.24688 -s 0 -d 3 -p tcp -e 1040 -c 1 -i 8 -a 1 -x {0.0 5.0 5 ------- null}
h -t 0.24688 -s 0 -d 3 -p tcp -e 1040 -c 1 -i 8 -a 1 -x {0.0 5.0 -1 ------- null}
- -t 0.25104 -s 0 -d 3 -p tcp -e 1040 -c 1 -i 9 -a 1 -x {0.0 5.0 6 ------- null}
h -t 0.25104 -s 0 -d 3 -p tcp -e 1040 -c 1 -i 9 -a 1 -x {0.0 5.0 -1 ------- null}
r -t 0.25272 -s 0 -d 3 -p tcp -e 1040 -c 1 -i 6 -a 1 -x {0.0 5.0 3 ------- null}
+ -t 0.25272 -s 3 -d 4 -p tcp -e 1040 -c 1 -i 6 -a 1 -x {0.0 5.0 3 ------- null}
- -t 0.25272 -s 3 -d 4 -p tcp -e 1040 -c 1 -i 6 -a 1 -x {0.0 5.0 3 ------- null}
h -t 0.25272 -s 3 -d 4 -p tcp -e 1040 -c 1 -i 6 -a 1 -x {0.0 5.0 -1 ------- null}
r -t 0.25688 -s 0 -d 3 -p tcp -e 1040 -c 1 -i 7 -a 1 -x {0.0 5.0 4 ------- null}
+ -t 0.25688 -s 3 -d 4 -p tcp -e 1040 -c 1 -i 7 -a 1 -x {0.0 5.0 4 ------- null}
r -t 0.26104 -s 0 -d 3 -p tcp -e 1040 -c 1 -i 8 -a 1 -x {0.0 5.0 5 ------- null}
+ -t 0.26104 -s 3 -d 4 -p tcp -e 1040 -c 1 -i 8 -a 1 -x {0.0 5.0 5 ------- null}
- -t 0.26104 -s 3 -d 4 -p tcp -e 1040 -c 1 -i 7 -a 1 -x {0.0 5.0 4 ------- null}
h -t 0.26104 -s 3 -d 4 -p tcp -e 1040 -c 1 -i 7 -a 1 -x {0.0 5.0 -1 ------- null}
r -t 0.2652 -s 0 -d 3 -p tcp -e 1040 -c 1 -i 9 -a 1 -x {0.0 5.0 6 ------- null}
+ -t 0.2652 -s 3 -d 4 -p tcp -e 1040 -c 1 -i 9 -a 1 -x {0.0 5.0 6 ------- null}
- -t 0.26936 -s 3 -d 4 -p tcp -e 1040 -c 1 -i 8 -a 1 -x {0.0 5.0 5 ------- null}
h -t 0.26936 -s 3 -d 4 -p tcp -e 1040 -c 1 -i 8 -a 1 -x {0.0 5.0 -1 ------- null}
r -t 0.27104 -s 3 -d 4 -p tcp -e 1040 -c 1 -i 6 -a 1 -x {0.0 5.0 3 ------- null}
+ -t 0.27104 -s 4 -d 5 -p tcp -e 1040 -c 1 -i 6 -a 1 -x {0.0 5.0 3 ------- null}
- -t 0.27104 -s 4 -d 5 -p tcp -e 1040 -c 1 -i 6 -a 1 -x {0.0 5.0 3 ------- null}
h -t 0.27104 -s 4 -d 5 -p tcp -e 1040 -c 1 -i 6 -a 1 -x {0.0 5.0 -1 ------- null}
- -t 0.27768 -s 3 -d 4 -p tcp -e 1040 -c 1 -i 9 -a 1 -x {0.0 5.0 6 ------- null}
h -t 0.27768 -s 3 -d 4 -p tcp -e 1040 -c 1 -i 9 -a 1 -x {0.0 5.0 -1 ------- null}
r -t 0.27936 -s 3 -d 4 -p tcp -e 1040 -c 1 -i 7 -a 1 -x {0.0 5.0 4 ------- null}
+ -t 0.27936 -s 4 -d 5 -p tcp -e 1040 -c 1 -i 7 -a 1 -x {0.0 5.0 4 ------- null}
- -t 0.27936 -s 4 -d 5 -p tcp -e 1040 -c 1 -i 7 -a 1 -x {0.0 5.0 4 ------- null}
h -t 0.27936 -s 4 -d 5 -p tcp -e 1040 -c 1 -i 7 -a 1 -x {0.0 5.0 -1 ------- null}
r -t 0.2852 -s 4 -d 5 -p tcp -e 1040 -c 1 -i 6 -a 1 -x {0.0 5.0 3 ------- null}
+ -t 0.2852 -s 5 -d 4 -p ack -e 40 -c 1 -i 10 -a 1 -x {5.0 0.0 3 ------- null}
- -t 0.2852 -s 5 -d 4 -p ack -e 40 -c 1 -i 10 -a 1 -x {5.0 0.0 3 ------- null}
h -t 0.2852 -s 5 -d 4 -p ack -e 40 -c 1 -i 10 -a 1 -x {5.0 0.0 -1 ------- null}
r -t 0.28768 -s 3 -d 4 -p tcp -e 1040 -c 1 -i 8 -a 1 -x {0.0 5.0 5 ------- null}
+ -t 0.28768 -s 4 -d 5 -p tcp -e 1040 -c 1 -i 8 -a 1 -x {0.0 5.0 5 ------- null}
- -t 0.28768 -s 4 -d 5 -p tcp -e 1040 -c 1 -i 8 -a 1 -x {0.0 5.0 5 ------- null}
h -t 0.28768 -s 4 -d 5 -p tcp -e 1040 -c 1 -i 8 -a 1 -x {0.0 5.0 -1 ------- null}
r -t 0.29352 -s 4 -d 5 -p tcp -e 1040 -c 1 -i 7 -a 1 -x {0.0 5.0 4 ------- null}
+ -t 0.29352 -s 5 -d 4 -p ack -e 40 -c 1 -i 11 -a 1 -x {5.0 0.0 4 ------- null}
- -t 0.29352 -s 5 -d 4 -p ack -e 40 -c 1 -i 11 -a 1 -x {5.0 0.0 4 ------- null}
h -t 0.29352 -s 5 -d 4 -p ack -e 40 -c 1 -i 11 -a 1 -x {5.0 0.0 -1 ------- null}
r -t 0.29536 -s 5 -d 4 -p ack -e 40 -c 1 -i 10 -a 1 -x {5.0 0.0 3 ------- null}
+ -t 0.29536 -s 4 -d 3 -p ack -e 40 -c 1 -i 10 -a 1 -x {5.0 0.0 3 ------- null}
- -t 0.29536 -s 4 -d 3 -p ack -e 40 -c 1 -i 10 -a 1 -x {5.0 0.0 3 ------- null}
h -t 0.29536 -s 4 -d 3 -p ack -e 40 -c 1 -i 10 -a 1 -x {5.0 0.0 -1 ------- null}
r -t 0.296 -s 3 -d 4 -p tcp -e 1040 -c 1 -i 9 -a 1 -x {0.0 5.0 6 ------- null}
+ -t 0.296 -s 4 -d 5 -p tcp -e 1040 -c 1 -i 9 -a 1 -x {0.0 5.0 6 ------- null}
- -t 0.296 -s 4 -d 5 -p tcp -e 1040 -c 1 -i 9 -a 1 -x {0.0 5.0 6 ------- null}
h -t 0.296 -s 4 -d 5 -p tcp -e 1040 -c 1 -i 9 -a 1 -x {0.0 5.0 -1 ------- null}
r -t 0.30184 -s 4 -d 5 -p tcp -e 1040 -c 1 -i 8 -a 1 -x {0.0 5.0 5 ------- null}
+ -t 0.30184 -s 5 -d 4 -p ack -e 40 -c 1 -i 12 -a 1 -x {5.0 0.0 5 ------- null}
- -t 0.30184 -s 5 -d 4 -p ack -e 40 -c 1 -i 12 -a 1 -x {5.0 0.0 5 ------- null}
h -t 0.30184 -s 5 -d 4 -p ack -e 40 -c 1 -i 12 -a 1 -x {5.0 0.0 -1 ------- null}
r -t 0.30368 -s 5 -d 4 -p ack -e 40 -c 1 -i 11 -a 1 -x {5.0 0.0 4 ------- null}
+ -t 0.30368 -s 4 -d 3 -p ack -e 40 -c 1 -i 11 -a 1 -x {5.0 0.0 4 ------- null}
- -t 0.30368 -s 4 -d 3 -p ack -e 40 -c 1 -i 11 -a 1 -x {5.0 0.0 4 ------- null}
h -t 0.30368 -s 4 -d 3 -p ack -e 40 -c 1 -i 11 -a 1 -x {5.0 0.0 -1 ------- null}
r -t 0.30568 -s 4 -d 3 -p ack -e 40 -c 1 -i 10 -a 1 -x {5.0 0.0 3 ------- null}
+ -t 0.30568 -s 3 -d 0 -p ack -e 40 -c 1 -i 10 -a 1 -x {5.0 0.0 3 ------- null}
- -t 0.30568 -s 3 -d 0 -p ack -e 40 -c 1 -i 10 -a 1 -x {5.0 0.0 3 ------- null}
h -t 0.30568 -s 3 -d 0 -p ack -e 40 -c 1 -i 10 -a 1 -x {5.0 0.0 -1 ------- null}
r -t 0.31016 -s 4 -d 5 -p tcp -e 1040 -c 1 -i 9 -a 1 -x {0.0 5.0 6 ------- null}
+ -t 0.31016 -s 5 -d 4 -p ack -e 40 -c 1 -i 13 -a 1 -x {5.0 0.0 6 ------- null}
- -t 0.31016 -s 5 -d 4 -p ack -e 40 -c 1 -i 13 -a 1 -x {5.0 0.0 6 ------- null}
h -t 0.31016 -s 5 -d 4 -p ack -e 40 -c 1 -i 13 -a 1 -x {5.0 0.0 -1 ------- null}
r -t 0.312 -s 5 -d 4 -p ack -e 40 -c 1 -i 12 -a 1 -x {5.0 0.0 5 ------- null}
+ -t 0.312 -s 4 -d 3 -p ack -e 40 -c 1 -i 12 -a 1 -x {5.0 0.0 5 ------- null}
- -t 0.312 -s 4 -d 3 -p ack -e 40 -c 1 -i 12 -a 1 -x {5.0 0.0 5 ------- null}
h -t 0.312 -s 4 -d 3 -p ack -e 40 -c 1 -i 12 -a 1 -x {5.0 0.0 -1 ------- null}
r -t 0.314 -s 4 -d 3 -p ack -e 40 -c 1 -i 11 -a 1 -x {5.0 0.0 4 ------- null}
+ -t 0.314 -s 3 -d 0 -p ack -e 40 -c 1 -i 11 -a 1 -x {5.0 0.0 4 ------- null}
- -t 0.314 -s 3 -d 0 -p ack -e 40 -c 1 -i 11 -a 1 -x {5.0 0.0 4 ------- null}
h -t 0.314 -s 3 -d 0 -p ack -e 40 -c 1 -i 11 -a 1 -x {5.0 0.0 -1 ------- null}
r -t 0.31584 -s 3 -d 0 -p ack -e 40 -c 1 -i 10 -a 1 -x {5.0 0.0 3 ------- null}
+ -t 0.31584 -s 0 -d 3 -p tcp -e 1040 -c 1 -i 14 -a 1 -x {0.0 5.0 7 ------- null}
- -t 0.31584 -s 0 -d 3 -p tcp -e 1040 -c 1 -i 14 -a 1 -x {0.0 5.0 7 ------- null}
h -t 0.31584 -s 0 -d 3 -p tcp -e 1040 -c 1 -i 14 -a 1 -x {0.0 5.0 -1 ------- null}
+ -t 0.31584 -s 0 -d 3 -p tcp -e 1040 -c 1 -i 15 -a 1 -x {0.0 5.0 8 ------- null}
- -t 0.32 -s 0 -d 3 -p tcp -e 1040 -c 1 -i 15 -a 1 -x {0.0 5.0 8 ------- null}
h -t 0.32 -s 0 -d 3 -p tcp -e 1040 -c 1 -i 15 -a 1 -x {0.0 5.0 -1 ------- null}
r -t 0.32032 -s 5 -d 4 -p ack -e 40 -c 1 -i 13 -a 1 -x {5.0 0.0 6 ------- null}
+ -t 0.32032 -s 4 -d 3 -p ack -e 40 -c 1 -i 13 -a 1 -x {5.0 0.0 6 ------- null}
- -t 0.32032 -s 4 -d 3 -p ack -e 40 -c 1 -i 13 -a 1 -x {5.0 0.0 6 ------- null}
h -t 0.32032 -s 4 -d 3 -p ack -e 40 -c 1 -i 13 -a 1 -x {5.0 0.0 -1 ------- null}
r -t 0.32232 -s 4 -d 3 -p ack -e 40 -c 1 -i 12 -a 1 -x {5.0 0.0 5 ------- null}
+ -t 0.32232 -s 3 -d 0 -p ack -e 40 -c 1 -i 12 -a 1 -x {5.0 0.0 5 ------- null}
- -t 0.32232 -s 3 -d 0 -p ack -e 40 -c 1 -i 12 -a 1 -x {5.0 0.0 5 ------- null}
h -t 0.32232 -s 3 -d 0 -p ack -e 40 -c 1 -i 12 -a 1 -x {5.0 0.0 -1 ------- null}
r -t 0.32416 -s 3 -d 0 -p ack -e 40 -c 1 -i 11 -a 1 -x {5.0 0.0 4 ------- null}
+ -t 0.32416 -s 0 -d 3 -p tcp -e 1040 -c 1 -i 16 -a 1 -x {0.0 5.0 9 ------- null}
+ -t 0.32416 -s 0 -d 3 -p tcp -e 1040 -c 1 -i 17 -a 1 -x {0.0 5.0 10 ------- null}
- -t 0.32416 -s 0 -d 3 -p tcp -e 1040 -c 1 -i 16 -a 1 -x {0.0 5.0 9 ------- null}
h -t 0.32416 -s 0 -d 3 -p tcp -e 1040 -c 1 -i 16 -a 1 -x {0.0 5.0 -1 ------- null}
- -t 0.32832 -s 0 -d 3 -p tcp -e 1040 -c 1 -i 17 -a 1 -x {0.0 5.0 10 ------- null}
h -t 0.32832 -s 0 -d 3 -p tcp -e 1040 -c 1 -i 17 -a 1 -x {0.0 5.0 -1 ------- null}
r -t 0.33 -s 0 -d 3 -p tcp -e 1040 -c 1 -i 14 -a 1 -x {0.0 5.0 7 ------- null}
+ -t 0.33 -s 3 -d 4 -p tcp -e 1040 -c 1 -i 14 -a 1 -x {0.0 5.0 7 ------- null}
- -t 0.33 -s 3 -d 4 -p tcp -e 1040 -c 1 -i 14 -a 1 -x {0.0 5.0 7 ------- null}
h -t 0.33 -s 3 -d 4 -p tcp -e 1040 -c 1 -i 14 -a 1 -x {0.0 5.0 -1 ------- null}
r -t 0.33064 -s 4 -d 3 -p ack -e 40 -c 1 -i 13 -a 1 -x {5.0 0.0 6 ------- null}
+ -t 0.33064 -s 3 -d 0 -p ack -e 40 -c 1 -i 13 -a 1 -x {5.0 0.0 6 ------- null}
- -t 0.33064 -s 3 -d 0 -p ack -e 40 -c 1 -i 13 -a 1 -x {5.0 0.0 6 ------- null}
h -t 0.33064 -s 3 -d 0 -p ack -e 40 -c 1 -i 13 -a 1 -x {5.0 0.0 -1 ------- null}
r -t 0.33248 -s 3 -d 0 -p ack -e 40 -c 1 -i 12 -a 1 -x {5.0 0.0 5 ------- null}
+ -t 0.33248 -s 0 -d 3 -p tcp -e 1040 -c 1 -i 18 -a 1 -x {0.0 5.0 11 ------- null}
+ -t 0.33248 -s 0 -d 3 -p tcp -e 1040 -c 1 -i 19 -a 1 -x {0.0 5.0 12 ------- null}
- -t 0.33248 -s 0 -d 3 -p tcp -e 1040 -c 1 -i 18 -a 1 -x {0.0 5.0 11 ------- null}
h -t 0.33248 -s 0 -d 3 -p tcp -e 1040 -c 1 -i 18 -a 1 -x {0.0 5.0 -1 ------- null}
r -t 0.33416 -s 0 -d 3 -p tcp -e 1040 -c 1 -i 15 -a 1 -x {0.0 5.0 8 ------- null}
+ -t 0.33416 -s 3 -d 4 -p tcp -e 1040 -c 1 -i 15 -a 1 -x {0.0 5.0 8 ------- null}
- -t 0.33664 -s 0 -d 3 -p tcp -e 1040 -c 1 -i 19 -a 1 -x {0.0 5.0 12 ------- null}
h -t 0.33664 -s 0 -d 3 -p tcp -e 1040 -c 1 -i 19 -a 1 -x {0.0 5.0 -1 ------- null}
r -t 0.33832 -s 0 -d 3 -p tcp -e 1040 -c 1 -i 16 -a 1 -x {0.0 5.0 9 ------- null}
+ -t 0.33832 -s 3 -d 4 -p tcp -e 1040 -c 1 -i 16 -a 1 -x {0.0 5.0 9 ------- null}
- -t 0.33832 -s 3 -d 4 -p tcp -e 1040 -c 1 -i 15 -a 1 -x {0.0 5.0 8 ------- null}
h -t 0.33832 -s 3 -d 4 -p tcp -e 1040 -c 1 -i 15 -a 1 -x {0.0 5.0 -1 ------- null}
r -t 0.3408 -s 3 -d 0 -p ack -e 40 -c 1 -i 13 -a 1 -x {5.0 0.0 6 ------- null}
+ -t 0.3408 -s 0 -d 3 -p tcp -e 1040 -c 1 -i 20 -a 1 -x {0.0 5.0 13 ------- null}
+ -t 0.3408 -s 0 -d 3 -p tcp -e 1040 -c 1 -i 21 -a 1 -x {0.0 5.0 14 ------- null}
- -t 0.3408 -s 0 -d 3 -p tcp -e 1040 -c 1 -i 20 -a 1 -x {0.0 5.0 13 ------- null}
h -t 0.3408 -s 0 -d 3 -p tcp -e 1040 -c 1 -i 20 -a 1 -x {0.0 5.0 -1 ------- null}
r -t 0.34248 -s 0 -d 3 -p tcp -e 1040 -c 1 -i 17 -a 1 -x {0.0 5.0 10 ------- null}
+ -t 0.34248 -s 3 -d 4 -p tcp -e 1040 -c 1 -i 17 -a 1 -x {0.0 5.0 10 ------- null}
- -t 0.34496 -s 0 -d 3 -p tcp -e 1040 -c 1 -i 21 -a 1 -x {0.0 5.0 14 ------- null}
h -t 0.34496 -s 0 -d 3 -p tcp -e 1040 -c 1 -i 21 -a 1 -x {0.0 5.0 -1 ------- null}
r -t 0.34664 -s 0 -d 3 -p tcp -e 1040 -c 1 -i 18 -a 1 -x {0.0 5.0 11 ------- null}
+ -t 0.34664 -s 3 -d 4 -p tcp -e 1040 -c 1 -i 18 -a 1 -x {0.0 5.0 11 ------- null}
- -t 0.34664 -s 3 -d 4 -p tcp -e 1040 -c 1 -i 16 -a 1 -x {0.0 5.0 9 ------- null}
h -t 0.34664 -s 3 -d 4 -p tcp -e 1040 -c 1 -i 16 -a 1 -x {0.0 5.0 -1 ------- null}
r -t 0.34832 -s 3 -d 4 -p tcp -e 1040 -c 1 -i 14 -a 1 -x {0.0 5.0 7 ------- null}
+ -t 0.34832 -s 4 -d 5 -p tcp -e 1040 -c 1 -i 14 -a 1 -x {0.0 5.0 7 ------- null}
- -t 0.34832 -s 4 -d 5 -p tcp -e 1040 -c 1 -i 14 -a 1 -x {0.0 5.0 7 ------- null}
h -t 0.34832 -s 4 -d 5 -p tcp -e 1040 -c 1 -i 14 -a 1 -x {0.0 5.0 -1 ------- null}
r -t 0.3508 -s 0 -d 3 -p tcp -e 1040 -c 1 -i 19 -a 1 -x {0.0 5.0 12 ------- null}
+ -t 0.3508 -s 3 -d 4 -p tcp -e 1040 -c 1 -i 19 -a 1 -x {0.0 5.0 12 ------- null}
r -t 0.35496 -s 0 -d 3 -p tcp -e 1040 -c 1 -i 20 -a 1 -x {0.0 5.0 13 ------- null}
+ -t 0.35496 -s 3 -d 4 -p tcp -e 1040 -c 1 -i 20 -a 1 -x {0.0 5.0 13 ------- null}
- -t 0.35496 -s 3 -d 4 -p tcp -e 1040 -c 1 -i 17 -a 1 -x {0.0 5.0 10 ------- null}
h -t 0.35496 -s 3 -d 4 -p tcp -e 1040 -c 1 -i 17 -a 1 -x {0.0 5.0 -1 ------- null}
r -t 0.35664 -s 3 -d 4 -p tcp -e 1040 -c 1 -i 15 -a 1 -x {0.0 5.0 8 ------- null}
+ -t 0.35664 -s 4 -d 5 -p tcp -e 1040 -c 1 -i 15 -a 1 -x {0.0 5.0 8 ------- null}
- -t 0.35664 -s 4 -d 5 -p tcp -e 1040 -c 1 -i 15 -a 1 -x {0.0 5.0 8 ------- null}
h -t 0.35664 -s 4 -d 5 -p tcp -e 1040 -c 1 -i 15 -a 1 -x {0.0 5.0 -1 ------- null}
r -t 0.35912 -s 0 -d 3 -p tcp -e 1040 -c 1 -i 21 -a 1 -x {0.0 5.0 14 ------- null}
+ -t 0.35912 -s 3 -d 4 -p tcp -e 1040 -c 1 -i 21 -a 1 -x {0.0 5.0 14 ------- null}
r -t 0.36248 -s 4 -d 5 -p tcp -e 1040 -c 1 -i 14 -a 1 -x {0.0 5.0 7 ------- null}
+ -t 0.36248 -s 5 -d 4 -p ack -e 40 -c 1 -i 22 -a 1 -x {5.0 0.0 7 ------- null}
- -t 0.36248 -s 5 -d 4 -p ack -e 40 -c 1 -i 22 -a 1 -x {5.0 0.0 7 ------- null}
h -t 0.36248 -s 5 -d 4 -p ack -e 40 -c 1 -i 22 -a 1 -x {5.0 0.0 -1 ------- null}
- -t 0.36328 -s 3 -d 4 -p tcp -e 1040 -c 1 -i 18 -a 1 -x {0.0 5.0 11 ------- null}
h -t 0.36328 -s 3 -d 4 -p tcp -e 1040 -c 1 -i 18 -a 1 -x {0.0 5.0 -1 ------- null}
r -t 0.36496 -s 3 -d 4 -p tcp -e 1040 -c 1 -i 16 -a 1 -x {0.0 5.0 9 ------- null}
+ -t 0.36496 -s 4 -d 5 -p tcp -e 1040 -c 1 -i 16 -a 1 -x {0.0 5.0 9 ------- null}
- -t 0.36496 -s 4 -d 5 -p tcp -e 1040 -c 1 -i 16 -a 1 -x {0.0 5.0 9 ------- null}
h -t 0.36496 -s 4 -d 5 -p tcp -e 1040 -c 1 -i 16 -a 1 -x {0.0 5.0 -1 ------- null}
r -t 0.3708 -s 4 -d 5 -p tcp -e 1040 -c 1 -i 15 -a 1 -x {0.0 5.0 8 ------- null}
+ -t 0.3708 -s 5 -d 4 -p ack -e 40 -c 1 -i 23 -a 1 -x {5.0 0.0 8 ------- null}
- -t 0.3708 -s 5 -d 4 -p ack -e 40 -c 1 -i 23 -a 1 -x {5.0 0.0 8 ------- null}
h -t 0.3708 -s 5 -d 4 -p ack -e 40 -c 1 -i 23 -a 1 -x {5.0 0.0 -1 ------- null}
- -t 0.3716 -s 3 -d 4 -p tcp -e 1040 -c 1 -i 19 -a 1 -x {0.0 5.0 12 ------- null}
h -t 0.3716 -s 3 -d 4 -p tcp -e 1040 -c 1 -i 19 -a 1 -x {0.0 5.0 -1 ------- null}
r -t 0.37264 -s 5 -d 4 -p ack -e 40 -c 1 -i 22 -a 1 -x {5.0 0.0 7 ------- null}
+ -t 0.37264 -s 4 -d 3 -p ack -e 40 -c 1 -i 22 -a 1 -x {5.0 0.0 7 ------- null}
- -t 0.37264 -s 4 -d 3 -p ack -e 40 -c 1 -i 22 -a 1 -x {5.0 0.0 7 ------- null}
h -t 0.37264 -s 4 -d 3 -p ack -e 40 -c 1 -i 22 -a 1 -x {5.0 0.0 -1 ------- null}
r -t 0.37328 -s 3 -d 4 -p tcp -e 1040 -c 1 -i 17 -a 1 -x {0.0 5.0 10 ------- null}
+ -t 0.37328 -s 4 -d 5 -p tcp -e 1040 -c 1 -i 17 -a 1 -x {0.0 5.0 10 ------- null}
- -t 0.37328 -s 4 -d 5 -p tcp -e 1040 -c 1 -i 17 -a 1 -x {0.0 5.0 10 ------- null}
h -t 0.37328 -s 4 -d 5 -p tcp -e 1040 -c 1 -i 17 -a 1 -x {0.0 5.0 -1 ------- null}
r -t 0.37912 -s 4 -d 5 -p tcp -e 1040 -c 1 -i 16 -a 1 -x {0.0 5.0 9 ------- null}
+ -t 0.37912 -s 5 -d 4 -p ack -e 40 -c 1 -i 24 -a 1 -x {5.0 0.0 9 ------- null}
- -t 0.37912 -s 5 -d 4 -p ack -e 40 -c 1 -i 24 -a 1 -x {5.0 0.0 9 ------- null}
h -t 0.37912 -s 5 -d 4 -p ack -e 40 -c 1 -i 24 -a 1 -x {5.0 0.0 -1 ------- null}
- -t 0.37992 -s 3 -d 4 -p tcp -e 1040 -c 1 -i 20 -a 1 -x {0.0 5.0 13 ------- null}
h -t 0.37992 -s 3 -d 4 -p tcp -e 1040 -c 1 -i 20 -a 1 -x {0.0 5.0 -1 ------- null}
r -t 0.38096 -s 5 -d 4 -p ack -e 40 -c 1 -i 23 -a 1 -x {5.0 0.0 8 ------- null}
+ -t 0.38096 -s 4 -d 3 -p ack -e 40 -c 1 -i 23 -a 1 -x {5.0 0.0 8 ------- null}
- -t 0.38096 -s 4 -d 3 -p ack -e 40 -c 1 -i 23 -a 1 -x {5.0 0.0 8 ------- null}
h -t 0.38096 -s 4 -d 3 -p ack -e 40 -c 1 -i 23 -a 1 -x {5.0 0.0 -1 ------- null}
r -t 0.3816 -s 3 -d 4 -p tcp -e 1040 -c 1 -i 18 -a 1 -x {0.0 5.0 11 ------- null}
+ -t 0.3816 -s 4 -d 5 -p tcp -e 1040 -c 1 -i 18 -a 1 -x {0.0 5.0 11 ------- null}
- -t 0.3816 -s 4 -d 5 -p tcp -e 1040 -c 1 -i 18 -a 1 -x {0.0 5.0 11 ------- null}
h -t 0.3816 -s 4 -d 5 -p tcp -e 1040 -c 1 -i 18 -a 1 -x {0.0 5.0 -1 ------- null}
r -t 0.38296 -s 4 -d 3 -p ack -e 40 -c 1 -i 22 -a 1 -x {5.0 0.0 7 ------- null}
+ -t 0.38296 -s 3 -d 0 -p ack -e 40 -c 1 -i 22 -a 1 -x {5.0 0.0 7 ------- null}
- -t 0.38296 -s 3 -d 0 -p ack -e 40 -c 1 -i 22 -a 1 -x {5.0 0.0 7 ------- null}
h -t 0.38296 -s 3 -d 0 -p ack -e 40 -c 1 -i 22 -a 1 -x {5.0 0.0 -1 ------- null}
r -t 0.38744 -s 4 -d 5 -p tcp -e 1040 -c 1 -i 17 -a 1 -x {0.0 5.0 10 ------- null}
+ -t 0.38744 -s 5 -d 4 -p ack -e 40 -c 1 -i 25 -a 1 -x {5.0 0.0 10 ------- null}
- -t 0.38744 -s 5 -d 4 -p ack -e 40 -c 1 -i 25 -a 1 -x {5.0 0.0 10 ------- null}
h -t 0.38744 -s 5 -d 4 -p ack -e 40 -c 1 -i 25 -a 1 -x {5.0 0.0 -1 ------- null}
- -t 0.38824 -s 3 -d 4 -p tcp -e 1040 -c 1 -i 21 -a 1 -x {0.0 5.0 14 ------- null}
h -t 0.38824 -s 3 -d 4 -p tcp -e 1040 -c 1 -i 21 -a 1 -x {0.0 5.0 -1 ------- null}
r -t 0.38928 -s 5 -d 4 -p ack -e 40 -c 1 -i 24 -a 1 -x {5.0 0.0 9 ------- null}
+ -t 0.38928 -s 4 -d 3 -p ack -e 40 -c 1 -i 24 -a 1 -x {5.0 0.0 9 ------- null}
- -t 0.38928 -s 4 -d 3 -p ack -e 40 -c 1 -i 24 -a 1 -x {5.0 0.0 9 ------- null}
h -t 0.38928 -s 4 -d 3 -p ack -e 40 -c 1 -i 24 -a 1 -x {5.0 0.0 -1 ------- null}
r -t 0.38992 -s 3 -d 4 -p tcp -e 1040 -c 1 -i 19 -a 1 -x {0.0 5.0 12 ------- null}
+ -t 0.38992 -s 4 -d 5 -p tcp -e 1040 -c 1 -i 19 -a 1 -x {0.0 5.0 12 ------- null}
- -t 0.38992 -s 4 -d 5 -p tcp -e 1040 -c 1 -i 19 -a 1 -x {0.0 5.0 12 ------- null}
h -t 0.38992 -s 4 -d 5 -p tcp -e 1040 -c 1 -i 19 -a 1 -x {0.0 5.0 -1 ------- null}
r -t 0.39128 -s 4 -d 3 -p ack -e 40 -c 1 -i 23 -a 1 -x {5.0 0.0 8 ------- null}
+ -t 0.39128 -s 3 -d 0 -p ack -e 40 -c 1 -i 23 -a 1 -x {5.0 0.0 8 ------- null}
- -t 0.39128 -s 3 -d 0 -p ack -e 40 -c 1 -i 23 -a 1 -x {5.0 0.0 8 ------- null}
h -t 0.39128 -s 3 -d 0 -p ack -e 40 -c 1 -i 23 -a 1 -x {5.0 0.0 -1 ------- null}
r -t 0.39312 -s 3 -d 0 -p ack -e 40 -c 1 -i 22 -a 1 -x {5.0 0.0 7 ------- null}
+ -t 0.39312 -s 0 -d 3 -p tcp -e 1040 -c 1 -i 26 -a 1 -x {0.0 5.0 15 ------- null}
- -t 0.39312 -s 0 -d 3 -p tcp -e 1040 -c 1 -i 26 -a 1 -x {0.0 5.0 15 ------- null}
h -t 0.39312 -s 0 -d 3 -p tcp -e 1040 -c 1 -i 26 -a 1 -x {0.0 5.0 -1 ------- null}
+ -t 0.39312 -s 0 -d 3 -p tcp -e 1040 -c 1 -i 27 -a 1 -x {0.0 5.0 16 ------- null}
r -t 0.39576 -s 4 -d 5 -p tcp -e 1040 -c 1 -i 18 -a 1 -x {0.0 5.0 11 ------- null}
+ -t 0.39576 -s 5 -d 4 -p ack -e 40 -c 1 -i 28 -a 1 -x {5.0 0.0 11 ------- null}
- -t 0.39576 -s 5 -d 4 -p ack -e 40 -c 1 -i 28 -a 1 -x {5.0 0.0 11 ------- null}
h -t 0.39576 -s 5 -d 4 -p ack -e 40 -c 1 -i 28 -a 1 -x {5.0 0.0 -1 ------- null}
- -t 0.39728 -s 0 -d 3 -p tcp -e 1040 -c 1 -i 27 -a 1 -x {0.0 5.0 16 ------- null}
h -t 0.39728 -s 0 -d 3 -p tcp -e 1040 -c 1 -i 27 -a 1 -x {0.0 5.0 -1 ------- null}
r -t 0.3976 -s 5 -d 4 -p ack -e 40 -c 1 -i 25 -a 1 -x {5.0 0.0 10 ------- null}
+ -t 0.3976 -s 4 -d 3 -p ack -e 40 -c 1 -i 25 -a 1 -x {5.0 0.0 10 ------- null}
- -t 0.3976 -s 4 -d 3 -p ack -e 40 -c 1 -i 25 -a 1 -x {5.0 0.0 10 ------- null}
h -t 0.3976 -s 4 -d 3 -p ack -e 40 -c 1 -i 25 -a 1 -x {5.0 0.0 -1 ------- null}
r -t 0.39824 -s 3 -d 4 -p tcp -e 1040 -c 1 -i 20 -a 1 -x {0.0 5.0 13 ------- null}
+ -t 0.39824 -s 4 -d 5 -p tcp -e 1040 -c 1 -i 20 -a 1 -x {0.0 5.0 13 ------- null}
- -t 0.39824 -s 4 -d 5 -p tcp -e 1040 -c 1 -i 20 -a 1 -x {0.0 5.0 13 ------- null}
h -t 0.39824 -s 4 -d 5 -p tcp -e 1040 -c 1 -i 20 -a 1 -x {0.0 5.0 -1 ------- null}
r -t 0.3996 -s 4 -d 3 -p ack -e 40 -c 1 -i 24 -a 1 -x {5.0 0.0 9 ------- null}
+ -t 0.3996 -s 3 -d 0 -p ack -e 40 -c 1 -i 24 -a 1 -x {5.0 0.0 9 ------- null}
- -t 0.3996 -s 3 -d 0 -p ack -e 40 -c 1 -i 24 -a 1 -x {5.0 0.0 9 ------- null}
h -t 0.3996 -s 3 -d 0 -p ack -e 40 -c 1 -i 24 -a 1 -x {5.0 0.0 -1 ------- null}
r -t 0.40144 -s 3 -d 0 -p ack -e 40 -c 1 -i 23 -a 1 -x {5.0 0.0 8 ------- null}
+ -t 0.40144 -s 0 -d 3 -p tcp -e 1040 -c 1 -i 29 -a 1 -x {0.0 5.0 17 ------- null}
+ -t 0.40144 -s 0 -d 3 -p tcp -e 1040 -c 1 -i 30 -a 1 -x {0.0 5.0 18 ------- null}
- -t 0.40144 -s 0 -d 3 -p tcp -e 1040 -c 1 -i 29 -a 1 -x {0.0 5.0 17 ------- null}
h -t 0.40144 -s 0 -d 3 -p tcp -e 1040 -c 1 -i 29 -a 1 -x {0.0 5.0 -1 ------- null}
r -t 0.40408 -s 4 -d 5 -p tcp -e 1040 -c 1 -i 19 -a 1 -x {0.0 5.0 12 ------- null}
+ -t 0.40408 -s 5 -d 4 -p ack -e 40 -c 1 -i 31 -a 1 -x {5.0 0.0 12 ------- null}
- -t 0.40408 -s 5 -d 4 -p ack -e 40 -c 1 -i 31 -a 1 -x {5.0 0.0 12 ------- null}
h -t 0.40408 -s 5 -d 4 -p ack -e 40 -c 1 -i 31 -a 1 -x {5.0 0.0 -1 ------- null}
- -t 0.4056 -s 0 -d 3 -p tcp -e 1040 -c 1 -i 30 -a 1 -x {0.0 5.0 18 ------- null}
h -t 0.4056 -s 0 -d 3 -p tcp -e 1040 -c 1 -i 30 -a 1 -x {0.0 5.0 -1 ------- null}
r -t 0.40592 -s 5 -d 4 -p ack -e 40 -c 1 -i 28 -a 1 -x {5.0 0.0 11 ------- null}
+ -t 0.40592 -s 4 -d 3 -p ack -e 40 -c 1 -i 28 -a 1 -x {5.0 0.0 11 ------- null}
- -t 0.40592 -s 4 -d 3 -p ack -e 40 -c 1 -i 28 -a 1 -x {5.0 0.0 11 ------- null}
h -t 0.40592 -s 4 -d 3 -p ack -e 40 -c 1 -i 28 -a 1 -x {5.0 0.0 -1 ------- null}
r -t 0.40656 -s 3 -d 4 -p tcp -e 1040 -c 1 -i 21 -a 1 -x {0.0 5.0 14 ------- null}
+ -t 0.40656 -s 4 -d 5 -p tcp -e 1040 -c 1 -i 21 -a 1 -x {0.0 5.0 14 ------- null}
- -t 0.40656 -s 4 -d 5 -p tcp -e 1040 -c 1 -i 21 -a 1 -x {0.0 5.0 14 ------- null}
h -t 0.40656 -s 4 -d 5 -p tcp -e 1040 -c 1 -i 21 -a 1 -x {0.0 5.0 -1 ------- null}
r -t 0.40728 -s 0 -d 3 -p tcp -e 1040 -c 1 -i 26 -a 1 -x {0.0 5.0 15 ------- null}
+ -t 0.40728 -s 3 -d 4 -p tcp -e 1040 -c 1 -i 26 -a 1 -x {0.0 5.0 15 ------- null}
- -t 0.40728 -s 3 -d 4 -p tcp -e 1040 -c 1 -i 26 -a 1 -x {0.0 5.0 15 ------- null}
h -t 0.40728 -s 3 -d 4 -p tcp -e 1040 -c 1 -i 26 -a 1 -x {0.0 5.0 -1 ------- null}
r -t 0.40792 -s 4 -d 3 -p ack -e 40 -c 1 -i 25 -a 1 -x {5.0 0.0 10 ------- null}
+ -t 0.40792 -s 3 -d 0 -p ack -e 40 -c 1 -i 25 -a 1 -x {5.0 0.0 10 ------- null}
- -t 0.40792 -s 3 -d 0 -p ack -e 40 -c 1 -i 25 -a 1 -x {5.0 0.0 10 ------- null}
h -t 0.40792 -s 3 -d 0 -p ack -e 40 -c 1 -i 25 -a 1 -x {5.0 0.0 -1 ------- null}
r -t 0.40976 -s 3 -d 0 -p ack -e 40 -c 1 -i 24 -a 1 -x {5.0 0.0 9 ------- null}
+ -t 0.40976 -s 0 -d 3 -p tcp -e 1040 -c 1 -i 32 -a 1 -x {0.0 5.0 19 ------- null}
+ -t 0.40976 -s 0 -d 3 -p tcp -e 1040 -c 1 -i 33 -a 1 -x {0.0 5.0 20 ------- null}
- -t 0.40976 -s 0 -d 3 -p tcp -e 1040 -c 1 -i 32 -a 1 -x {0.0 5.0 19 ------- null}
h -t 0.40976 -s 0 -d 3 -p tcp -e 1040 -c 1 -i 32 -a 1 -x {0.0 5.0 -1 ------- null}
r -t 0.41144 -s 0 -d 3 -p tcp -e 1040 -c 1 -i 27 -a 1 -x {0.0 5.0 16 ------- null}
+ -t 0.41144 -s 3 -d 4 -p tcp -e 1040 -c 1 -i 27 -a 1 -x {0.0 5.0 16 ------- null}
r -t 0.4124 -s 4 -d 5 -p tcp -e 1040 -c 1 -i 20 -a 1 -x {0.0 5.0 13 ------- null}
+ -t 0.4124 -s 5 -d 4 -p ack -e 40 -c 1 -i 34 -a 1 -x {5.0 0.0 13 ------- null}
- -t 0.4124 -s 5 -d 4 -p ack -e 40 -c 1 -i 34 -a 1 -x {5.0 0.0 13 ------- null}
h -t 0.4124 -s 5 -d 4 -p ack -e 40 -c 1 -i 34 -a 1 -x {5.0 0.0 -1 ------- null}
- -t 0.41392 -s 0 -d 3 -p tcp -e 1040 -c 1 -i 33 -a 1 -x {0.0 5.0 20 ------- null}
h -t 0.41392 -s 0 -d 3 -p tcp -e 1040 -c 1 -i 33 -a 1 -x {0.0 5.0 -1 ------- null}
r -t 0.41424 -s 5 -d 4 -p ack -e 40 -c 1 -i 31 -a 1 -x {5.0 0.0 12 ------- null}
+ -t 0.41424 -s 4 -d 3 -p ack -e 40 -c 1 -i 31 -a 1 -x {5.0 0.0 12 ------- null}
- -t 0.41424 -s 4 -d 3 -p ack -e 40 -c 1 -i 31 -a 1 -x {5.0 0.0 12 ------- null}
h -t 0.41424 -s 4 -d 3 -p ack -e 40 -c 1 -i 31 -a 1 -x {5.0 0.0 -1 ------- null}
r -t 0.4156 -s 0 -d 3 -p tcp -e 1040 -c 1 -i 29 -a 1 -x {0.0 5.0 17 ------- null}
+ -t 0.4156 -s 3 -d 4 -p tcp -e 1040 -c 1 -i 29 -a 1 -x {0.0 5.0 17 ------- null}
- -t 0.4156 -s 3 -d 4 -p tcp -e 1040 -c 1 -i 27 -a 1 -x {0.0 5.0 16 ------- null}
h -t 0.4156 -s 3 -d 4 -p tcp -e 1040 -c 1 -i 27 -a 1 -x {0.0 5.0 -1 ------- null}
r -t 0.41624 -s 4 -d 3 -p ack -e 40 -c 1 -i 28 -a 1 -x {5.0 0.0 11 ------- null}
+ -t 0.41624 -s 3 -d 0 -p ack -e 40 -c 1 -i 28 -a 1 -x {5.0 0.0 11 ------- null}
- -t 0.41624 -s 3 -d 0 -p ack -e 40 -c 1 -i 28 -a 1 -x {5.0 0.0 11 ------- null}
h -t 0.41624 -s 3 -d 0 -p ack -e 40 -c 1 -i 28 -a 1 -x {5.0 0.0 -1 ------- null}
r -t 0.41808 -s 3 -d 0 -p ack -e 40 -c 1 -i 25 -a 1 -x {5.0 0.0 10 ------- null}