V -t * -v 1.0a5 -a 0
A -t * -n 1 -p 0 -o 0x7fffffff -c 30 -a 1
A -t * -h 1 -m 1073741823 -s 0
n -t * -a 4 -s 4 -S UP -v circle -c black -i black
n -t * -a 0 -s 0 -S UP -v circle -c black -i black
n -t * -a 5 -s 5 -S UP -v circle -c black -i black
n -t * -a 1 -s 1 -S UP -v circle -c black -i black
n -t * -a 6 -s 6 -S UP -v circle -c black -i black
n -t * -a 2 -s 2 -S UP -v circle -c black -i black
n -t * -a 7 -s 7 -S UP -v circle -c black -i black
n -t * -a 3 -s 3 -S UP -v circle -c black -i black
l -t * -s 0 -d 3 -S UP -r 2000000 -D 0.01 -c black
l -t * -s 1 -d 3 -S UP -r 2000000 -D 0.01 -c black
l -t * -s 2 -d 3 -S UP -r 2000000 -D 0.01 -c black
l -t * -s 3 -d 4 -S UP -r 1000000 -D 0.01 -c black
l -t * -s 4 -d 5 -S UP -r 2000000 -D 0.01 -c black
l -t * -s 4 -d 6 -S UP -r 2000000 -D 0.01 -c black
l -t * -s 4 -d 7 -S UP -r 2000000 -D 0.01 -c black
+ -t 0.1 -s 0 -d 3 -p tcp -e 40 -c 1 -i 0 -a 1 -x {0.0 5.0 0 ------- null}
- -t 0.1 -s 0 -d 3 -p tcp -e 40 -c 1 -i 0 -a 1 -x {0.0 5.0 0 ------- null}
h -t 0.1 -s 0 -d 3 -p tcp -e 40 -c 1 -i 0 -a 1 -x {0.0 5.0 -1 ------- null}
+ -t 0.1 -s 1 -d 3 -p tcp -e 40 -c 2 -i 1 -a 2 -x {1.0 6.0 0 ------- null}
- -t 0.1 -s 1 -d 3 -p tcp -e 40 -c 2 -i 1 -a 2 -x {1.0 6.0 0 ------- null}
h -t 0.1 -s 1 -d 3 -p tcp -e 40 -c 2 -i 1 -a 2 -x {1.0 6.0 -1 ------- null}
+ -t 0.1 -s 2 -d 3 -p tcp -e 40 -c 3 -i 2 -a 3 -x {2.0 7.0 0 ------- null}
- -t 0.1 -s 2 -d 3 -p tcp -e 40 -c 3 -i 2 -a 3 -x {2.0 7.0 0 ------- null}
h -t 0.1 -s 2 -d 3 -p tcp -e 40 -c 3 -i 2 -a 3 -x {2.0 7.0 -1 ------- null}
r -t 0.11016 -s 0 -d 3 -p tcp -e 40 -c 1 -i 0 -a 1 -x {0.0 5.0 0 ------- null}
+ -t 0.11016 -s 3 -d 4 -p tcp -e 40 -c 1 -i 0 -a 1 -x {0.0 5.0 0 ------- null}
- -t 0.11016 -s 3 -d 4 -p tcp -e 40 -c 1 -i 0 -a 1 -x {0.0 5.0 0 ------- null}
h -t 0.11016 -s 3 -d 4 -p tcp -e 40 -c 1 -i 0 -a 1 -x {0.0 5.0 -1 ------- null}
r -t 0.11016 -s 1 -d 3 -p tcp -e 40 -c 2 -i 1 -a 2 -x {1.0 6.0 0 ------- null}
+ -t 0.11016 -s 3 -d 4 -p tcp -e 40 -c 2 -i 1 -a 2 -x {1.0 6.0 0 ------- null}
r -t 0.11016 -s 2 -d 3 -p tcp -e 40 -c 3 -i 2 -a 3 -x {2.0 7.0 0 ------- null}
+ -t 0.11016 -s 3 -d 4 -p tcp -e 40 -c 3 -i 2 -a 3 -x {2.0 7.0 0 ------- null}
- -t 0.11048 -s 3 -d 4 -p tcp -e 40 -c 2 -i 1 -a 2 -x {1.0 6.0 0 ------- null}
h -t 0.11048 -s 3 -d 4 -p tcp -e 40 -c 2 -i 1 -a 2 -x {1.0 6.0 -1 ------- null}
- -t 0.1108 -s 3 -d 4 -p tcp -e 40 -c 3 -i 2 -a 3 -x {2.0 7.0 0 ------- null}
h -t 0.1108 -s 3 -d 4 -p tcp -e 40 -c 3 -i 2 -a 3 -x {2.0 7.0 -1 ------- null}
r -t 0.12048 -s 3 -d 4 -p tcp -e 40 -c 1 -i 0 -a 1 -x {0.0 5.0 0 ------- null}
+ -t 0.12048 -s 4 -d 5 -p tcp -e 40 -c 1 -i 0 -a 1 -x {0.0 5.0 0 ------- null}
- -t 0.12048 -s 4 -d 5 -p tcp -e 40 -c 1 -i 0 -a 1 -x {0.0 5.0 0 ------- null}
h -t 0.12048 -s 4 -d 5 -p tcp -e 40 -c 1 -i 0 -a 1 -x {0.0 5.0 -1 ------- null}
r -t 0.1208 -s 3 -d 4 -p tcp -e 40 -c 2 -i 1 -a 2 -x {1.0 6.0 0 ------- null}
+ -t 0.1208 -s 4 -d 6 -p tcp -e 40 -c 2 -i 1 -a 2 -x {1.0 6.0 0 ------- null}
- -t 0.1208 -s 4 -d 6 -p tcp -e 40 -c 2 -i 1 -a 2 -x {1.0 6.0 0 ------- null}
h -t 0.1208 -s 4 -d 6 -p tcp -e 40 -c 2 -i 1 -a 2 -x {1.0 6.0 -1 ------- null}
r -t 0.12112 -s 3 -d 4 -p tcp -e 40 -c 3 -i 2 -a 3 -x {2.0 7.0 0 ------- null}
+ -t 0.12112 -s 4 -d 7 -p tcp -e 40 -c 3 -i 2 -a 3 -x {2.0 7.0 0 ------- null}
- -t 0.12112 -s 4 -d 7 -p tcp -e 40 -c 3 -i 2 -a 3 -x {2.0 7.0 0 ------- null}
h -t 0.12112 -s 4 -d 7 -p tcp -e 40 -c 3 -i 2 -a 3 -x {2.0 7.0 -1 ------- null}
r -t 0.13064 -s 4 -d 5 -p tcp -e 40 -c 1 -i 0 -a 1 -x {0.0 5.0 0 ------- null}
+ -t 0.13064 -s 5 -d 4 -p ack -e 40 -c 1 -i 3 -a 1 -x {5.0 0.0 0 ------- null}
- -t 0.13064 -s 5 -d 4 -p ack -e 40 -c 1 -i 3 -a 1 -x {5.0 0.0 0 ------- null}
h -t 0.13064 -s 5 -d 4 -p ack -e 40 -c 1 -i 3 -a 1 -x {5.0 0.0 -1 ------- null}
r -t 0.13096 -s 4 -d 6 -p tcp -e 40 -c 2 -i 1 -a 2 -x {1.0 6.0 0 ------- null}
+ -t 0.13096 -s 6 -d 4 -p ack -e 40 -c 2 -i 4 -a 2 -x {6.0 1.0 0 ------- null}
- -t 0.13096 -s 6 -d 4 -p ack -e 40 -c 2 -i 4 -a 2 -x {6.0 1.0 0 ------- null}
h -t 0.13096 -s 6 -d 4 -p ack -e 40 -c 2 -i 4 -a 2 -x {6.0 1.0 -1 ------- null}
r -t 0.13128 -s 4 -d 7 -p tcp -e 40 -c 3 -i 2 -a 3 -x {2.0 7.0 0 ------- null}
+ -t 0.13128 -s 7 -d 4 -p ack -e 40 -c 3 -i 5 -a 3 -x {7.0 2.0 0 ------- null}
- -t 0.13128 -s 7 -d 4 -p ack -e 40 -c 3 -i 5 -a 3 -x {7.0 2.0 0 ------- null}
h -t 0.13128 -s 7 -d 4 -p ack -e 40 -c 3 -i 5 -a 3 -x {7.0 2.0 -1 ------- null}
r -t 0.1408 -s 5 -d 4 -p ack -e 40 -c 1 -i 3 -a 1 -x {5.0 0.0 0 ------- null}
+ -t 0.1408 -s 4 -d 3 -p ack -e 40 -c 1 -i 3 -a 1 -x {5.0 0.0 0 ------- null}
- -t 0.1408 -s 4 -d 3 -p ack -e 40 -c 1 -i 3 -a 1 -x {5.0 0.0 0 ------- null}
h -t 0.1408 -s 4 -d 3 -p ack -e 40 -c 1 -i 3 -a 1 -x {5.0 0.0 -1 ------- null}
r -t 0.14112 -s 6 -d 4 -p ack -e 40 -c 2 -i 4 -a 2 -x {6.0 1.0 0 ------- null}
+ -t 0.14112 -s 4 -d 3 -p ack -e 40 -c 2 -i 4 -a 2 -x {6.0 1.0 0 ------- null}
- -t 0.14112 -s 4 -d 3 -p ack -e 40 -c 2 -i 4 -a 2 -x {6.0 1.0 0 ------- null}
h -t 0.14112 -s 4 -d 3 -p ack -e 40 -c 2 -i 4 -a 2 -x {6.0 1.0 -1 ------- null}
r -t 0.14144 -s 7 -d 4 -p ack -e 40 -c 3 -i 5 -a 3 -x {7.0 2.0 0 ------- null}
+ -t 0.14144 -s 4 -d 3 -p ack -e 40 -c 3 -i 5 -a 3 -x {7.0 2.0 0 ------- null}
- -t 0.14144 -s 4 -d 3 -p ack -e 40 -c 3 -i 5 -a 3 -x {7.0 2.0 0 ------- null}
h -t 0.14144 -s 4 -d 3 -p ack -e 40 -c 3 -i 5 -a 3 -x {7.0 2.0 -1 ------- null}
r -t 0.15112 -s 4 -d 3 -p ack -e 40 -c 1 -i 3 -a 1 -x {5.0 0.0 0 ------- null}
+ -t 0.15112 -s 3 -d 0 -p ack -e 40 -c 1 -i 3 -a 1 -x {5.0 0.0 0 ------- null}
- -t 0.15112 -s 3 -d 0 -p ack -e 40 -c 1 -i 3 -a 1 -x {5.0 0.0 0 ------- null}
h -t 0.15112 -s 3 -d 0 -p ack -e 40 -c 1 -i 3 -a 1 -x {5.0 0.0 -1 ------- null}
r -t 0.15144 -s 4 -d 3 -p ack -e 40 -c 2 -i 4 -a 2 -x {6.0 1.0 0 ------- null}
+ -t 0.15144 -s 3 -d 1 -p ack -e 40 -c 2 -i 4 -a 2 -x {6.0 1.0 0 ------- null}
- -t 0.15144 -s 3 -d 1 -p ack -e 40 -c 2 -i 4 -a 2 -x {6.0 1.0 0 ------- null}
h -t 0.15144 -s 3 -d 1 -p ack -e 40 -c 2 -i 4 -a 2 -x {6.0 1.0 -1 ------- null}
r -t 0.15176 -s 4 -d 3 -p ack -e 40 -c 3 -i 5 -a 3 -x {7.0 2.0 0 ------- null}
+ -t 0.15176 -s 3 -d 2 -p ack -e 40 -c 3 -i 5 -a 3 -x {7.0 2.0 0 ------- null}
- -t 0.15176 -s 3 -d 2 -p ack -e 40 -c 3 -i 5 -a 3 -x {7.0 2.0 0 ------- null}
h -t 0.15176 -s 3 -d 2 -p ack -e 40 -c 3 -i 5 -a 3 -x {7.0 2.0 -1 ------- null}
r -t 0.16128 -s 3 -d 0 -p ack -e 40 -c 1 -i 3 -a 1 -x {5.0 0.0 0 ------- null}
+ -t 0.16128 -s 0 -d 3 -p tcp -e 1040 -c 1 -i 6 -a 1 -x {0.0 5.0 1 ------- null}
- -t 0.16128 -s 0 -d 3 -p tcp -e 1040 -c 1 -i 6 -a 1 -x {0.0 5.0 1 ------- null}
h -t 0.16128 -s 0 -d 3 -p tcp -e 1040 -c 1 -i 6 -a 1 -x {0.0 5.0 -1 ------- null}
+ -t 0.16128 -s 0 -d 3 -p tcp -e 1040 -c 1 -i 7 -a 1 -x {0.0 5.0 2 ------- null}
r -t 0.1616 -s 3 -d 1 -p ack -e 40 -c 2 -i 4 -a 2 -x {6.0 1.0 0 ------- null}
+ -t 0.1616 -s 1 -d 3 -p tcp -e 1040 -c 2 -i 8 -a 2 -x {1.0 6.0 1 ------- null}
- -t 0.1616 -s 1 -d 3 -p tcp -e 1040 -c 2 -i 8 -a 2 -x {1.0 6.0 1 ------- null}
h -t 0.1616 -s 1 -d 3 -p tcp -e 1040 -c 2 -i 8 -a 2 -x {1.0 6.0 -1 ------- null}
+ -t 0.1616 -s 1 -d 3 -p tcp -e 1040 -c 2 -i 9 -a 2 -x {1.0 6.0 2 ------- null}
r -t 0.16192 -s 3 -d 2 -p ack -e 40 -c 3 -i 5 -a 3 -x {7.0 2.0 0 ------- null}
+ -t 0.16192 -s 2 -d 3 -p tcp -e 1040 -c 3 -i 10 -a 3 -x {2.0 7.0 1 ------- null}
- -t 0.16192 -s 2 -d 3 -p tcp -e 1040 -c 3 -i 10 -a 3 -x {2.0 7.0 1 ------- null}
h -t 0.16192 -s 2 -d 3 -p tcp -e 1040 -c 3 -i 10 -a 3 -x {2.0 7.0 -1 ------- null}
+ -t 0.16192 -s 2 -d 3 -p tcp -e 1040 -c 3 -i 11 -a 3 -x {2.0 7.0 2 ------- null}
- -t 0.16544 -s 0 -d 3 -p tcp -e 1040 -c 1 -i 7 -a 1 -x {0.0 5.0 2 ------- null}
h -t 0.16544 -s 0 -d 3 -p tcp -e 1040 -c 1 -i 7 -a 1 -x {0.0 5.0 -1 ------- null}
- -t 0.16576 -s 1 -d 3 -p tcp -e 1040 -c 2 -i 9 -a 2 -x {1.0 6.0 2 ------- null}
h -t 0.16576 -s 1 -d 3 -p tcp -e 1040 -c 2 -i 9 -a 2 -x {1.0 6.0 -1 ------- null}
- -t 0.16608 -s 2 -d 3 -p tcp -e 1040 -c 3 -i 11 -a 3 -x {2.0 7.0 2 ------- null}
h -t 0.16608 -s 2 -d 3 -p tcp -e 1040 -c 3 -i 11 -a 3 -x {2.0 7.0 -1 ------- null}
r -t 0.17544 -s 0 -d 3 -p tcp -e 1040 -c 1 -i 6 -a 1 -x {0.0 5.0 1 ------- null}
+ -t 0.17544 -s 3 -d 4 -p tcp -e 1040 -c 1 -i 6 -a 1 -x {0.0 5.0 1 ------- null}
- -t 0.17544 -s 3 -d 4 -p tcp -e 1040 -c 1 -i 6 -a 1 -x {0.0 5.0 1 ------- null}
h -t 0.17544 -s 3 -d 4 -p tcp -e 1040 -c 1 -i 6 -a 1 -x {0.0 5.0 -1 ------- null}
r -t 0.17576 -s 1 -d 3 -p tcp -e 1040 -c 2 -i 8 -a 2 -x {1.0 6.0 1 ------- null}
+ -t 0.17576 -s 3 -d 4 -p tcp -e 1040 -c 2 -i 8 -a 2 -x {1.0 6.0 1 ------- null}
r -t 0.17608 -s 2 -d 3 -p tcp -e 1040 -c 3 -i 10 -a 3 -x {2.0 7.0 1 ------- null}
+ -t 0.17608 -s 3 -d 4 -p tcp -e 1040 -c 3 -i 10 -a 3 -x {2.0 7.0 1 ------- null}
r -t 0.1796 -s 0 -d 3 -p tcp -e 1040 -c 1 -i 7 -a 1 -x {0.0 5.0 2 ------- null}
+ -t 0.1796 -s 3 -d 4 -p tcp -e 1040 -c 1 -i 7 -a 1 -x {0.0 5.0 2 ------- null}
r -t 0.17992 -s 1 -d 3 -p tcp -e 1040 -c 2 -i 9 -a 2 -x {1.0 6.0 2 ------- null}
+ -t 0.17992 -s 3 -d 4 -p tcp -e 1040 -c 2 -i 9 -a 2 -x {1.0 6.0 2 ------- null}
r -t 0.18024 -s 2 -d 3 -p tcp -e 1040 -c 3 -i 11 -a 3 -x {2.0 7.0 2 ------- null}
+ -t 0.18024 -s 3 -d 4 -p tcp -e 1040 -c 3 -i 11 -a 3 -x {2.0 7.0 2 ------- null}
- -t 0.18376 -s 3 -d 4 -p tcp -e 1040 -c 2 -i 8 -a 2 -x {1.0 6.0 1 ------- null}
h -t 0.18376 -s 3 -d 4 -p tcp -e 1040 -c 2 -i 8 -a 2 -x {1.0 6.0 -1 ------- null}
- -t 0.19208 -s 3 -d 4 -p tcp -e 1040 -c 3 -i 10 -a 3 -x {2.0 7.0 1 ------- null}
h -t 0.19208 -s 3 -d 4 -p tcp -e 1040 -c 3 -i 10 -a 3 -x {2.0 7.0 -1 ------- null}
r -t 0.19376 -s 3 -d 4 -p tcp -e 1040 -c 1 -i 6 -a 1 -x {0.0 5.0 1 ------- null}
+ -t 0.19376 -s 4 -d 5 -p tcp -e 1040 -c 1 -i 6 -a 1 -x {0.0 5.0 1 ------- null}
- -t 0.19376 -s 4 -d 5 -p tcp -e 1040 -c 1 -i 6 -a 1 -x {0.0 5.0 1 ------- null}
h -t 0.19376 -s 4 -d 5 -p tcp -e 1040 -c 1 -i 6 -a 1 -x {0.0 5.0 -1 ------- null}
- -t 0.2004 -s 3 -d 4 -p tcp -e 1040 -c 1 -i 7 -a 1 -x {0.0 5.0 2 ------- null}
h -t 0.2004 -s 3 -d 4 -p tcp -e 1040 -c 1 -i 7 -a 1 -x {0.0 5.0 -1 ------- null}
r -t 0.20208 -s 3 -d 4 -p tcp -e 1040 -c 2 -i 8 -a 2 -x {1.0 6.0 1 ------- null}
+ -t 0.20208 -s 4 -d 6 -p tcp -e 1040 -c 2 -i 8 -a 2 -x {1.0 6.0 1 ------- null}
- -t 0.20208 -s 4 -d 6 -p tcp -e 1040 -c 2 -i 8 -a 2 -x {1.0 6.0 1 ------- null}
h -t 0.20208 -s 4 -d 6 -p tcp -e 1040 -c 2 -i 8 -a 2 -x {1.0 6.0 -1 ------- null}
r -t 0.20792 -s 4 -d 5 -p tcp -e 1040 -c 1 -i 6 -a 1 -x {0.0 5.0 1 ------- null}
+ -t 0.20792 -s 5 -d 4 -p ack -e 40 -c 1 -i 12 -a 1 -x {5.0 0.0 1 ------- null}
- -t 0.20792 -s 5 -d 4 -p ack -e 40 -c 1 -i 12 -a 1 -x {5.0 0.0 1 ------- null}
h -t 0.20792 -s 5 -d 4 -p ack -e 40 -c 1 -i 12 -a 1 -x {5.0 0.0 -1 ------- null}
- -t 0.20872 -s 3 -d 4 -p tcp -e 1040 -c 2 -i 9 -a 2 -x {1.0 6.0 2 ------- null}
h -t 0.20872 -s 3 -d 4 -p tcp -e 1040 -c 2 -i 9 -a 2 -x {1.0 6.0 -1 ------- null}
r -t 0.2104 -s 3 -d 4 -p tcp -e 1040 -c 3 -i 10 -a 3 -x {2.0 7.0 1 ------- null}
+ -t 0.2104 -s 4 -d 7 -p tcp -e 1040 -c 3 -i 10 -a 3 -x {2.0 7.0 1 ------- null}
- -t 0.2104 -s 4 -d 7 -p tcp -e 1040 -c 3 -i 10 -a 3 -x {2.0 7.0 1 ------- null}
h -t 0.2104 -s 4 -d 7 -p tcp -e 1040 -c 3 -i 10 -a 3 -x {2.0 7.0 -1 ------- null}
r -t 0.21624 -s 4 -d 6 -p tcp -e 1040 -c 2 -i 8 -a 2 -x {1.0 6.0 1 ------- null}
+ -t 0.21624 -s 6 -d 4 -p ack -e 40 -c 2 -i 13 -a 2 -x {6.0 1.0 1 ------- null}
- -t 0.21624 -s 6 -d 4 -p ack -e 40 -c 2 -i 13 -a 2 -x {6.0 1.0 1 ------- null}
h -t 0.21624 -s 6 -d 4 -p ack -e 40 -c 2 -i 13 -a 2 -x {6.0 1.0 -1 ------- null}
- -t 0.21704 -s 3 -d 4 -p tcp -e 1040 -c 3 -i 11 -a 3 -x {2.0 7.0 2 ------- null}
h -t 0.21704 -s 3 -d 4 -p tcp -e 1040 -c 3 -i 11 -a 3 -x {2.0 7.0 -1 ------- null}
r -t 0.21808 -s 5 -d 4 -p ack -e 40 -c 1 -i 12 -a 1 -x {5.0 0.0 1 ------- null}
+ -t 0.21808 -s 4 -d 3 -p ack -e 40 -c 1 -i 12 -a 1 -x {5.0 0.0 1 ------- null}
- -t 0.21808 -s 4 -d 3 -p ack -e 40 -c 1 -i 12 -a 1 -x {5.0 0.0 1 ------- null}
h -t 0.21808 -s 4 -d 3 -p ack -e 40 -c 1 -i 12 -a 1 -x {5.0 0.0 -1 ------- null}
r -t 0.21872 -s 3 -d 4 -p tcp -e 1040 -c 1 -i 7 -a 1 -x {0.0 5.0 2 ------- null}
+ -t 0.21872 -s 4 -d 5 -p tcp -e 1040 -c 1 -i 7 -a 1 -x {0.0 5.0 2 ------- null}
- -t 0.21872 -s 4 -d 5 -p tcp -e 1040 -c 1 -i 7 -a 1 -x {0.0 5.0 2 ------- null}
h -t 0.21872 -s 4 -d 5 -p tcp -e 1040 -c 1 -i 7 -a 1 -x {0.0 5.0 -1 ------- null}
r -t 0.22456 -s 4 -d 7 -p tcp -e 1040 -c 3 -i 10 -a 3 -x {2.0 7.0 1 ------- null}
+ -t 0.22456 -s 7 -d 4 -p ack -e 40 -c 3 -i 14 -a 3 -x {7.0 2.0 1 ------- null}
- -t 0.22456 -s 7 -d 4 -p ack -e 40 -c 3 -i 14 -a 3 -x {7.0 2.0 1 ------- null}
h -t 0.22456 -s 7 -d 4 -p ack -e 40 -c 3 -i 14 -a 3 -x {7.0 2.0 -1 ------- null}
r -t 0.2264 -s 6 -d 4 -p ack -e 40 -c 2 -i 13 -a 2 -x {6.0 1.0 1 ------- null}
+ -t 0.2264 -s 4 -d 3 -p ack -e 40 -c 2 -i 13 -a 2 -x {6.0 1.0 1 ------- null}
- -t 0.2264 -s 4 -d 3 -p ack -e 40 -c 2 -i 13 -a 2 -x {6.0 1.0 1 ------- null}
h -t 0.2264 -s 4 -d 3 -p ack -e 40 -c 2 -i 13 -a 2 -x {6.0 1.0 -1 ------- null}
r -t 0.22704 -s 3 -d 4 -p tcp -e 1040 -c 2 -i 9 -a 2 -x {1.0 6.0 2 ------- null}
+ -t 0.22704 -s 4 -d 6 -p tcp -e 1040 -c 2 -i 9 -a 2 -x {1.0 6.0 2 ------- null}
- -t 0.22704 -s 4 -d 6 -p tcp -e 1040 -c 2 -i 9 -a 2 -x {1.0 6.0 2 ------- null}
h -t 0.22704 -s 4 -d 6 -p tcp -e 1040 -c 2 -i 9 -a 2 -x {1.0 6.0 -1 ------- null}
r -t 0.2284 -s 4 -d 3 -p ack -e 40 -c 1 -i 12 -a 1 -x {5.0 0.0 1 ------- null}
+ -t 0.2284 -s 3 -d 0 -p ack -e 40 -c 1 -i 12 -a 1 -x {5.0 0.0 1 ------- null}
- -t 0.2284 -s 3 -d 0 -p ack -e 40 -c 1 -i 12 -a 1 -x {5.0 0.0 1 ------- null}
h -t 0.2284 -s 3 -d 0 -p ack -e 40 -c 1 -i 12 -a 1 -x {5.0 0.0 -1 ------- null}
r -t 0.23288 -s 4 -d 5 -p tcp -e 1040 -c 1 -i 7 -a 1 -x {0.0 5.0 2 ------- null}
+ -t 0.23288 -s 5 -d 4 -p ack -e 40 -c 1 -i 15 -a 1 -x {5.0 0.0 2 ------- null}
- -t 0.23288 -s 5 -d 4 -p ack -e 40 -c 1 -i 15 -a 1 -x {5.0 0.0 2 ------- null}
h -t 0.23288 -s 5 -d 4 -p ack -e 40 -c 1 -i 15 -a 1 -x {5.0 0.0 -1 ------- null}
r -t 0.23472 -s 7 -d 4 -p ack -e 40 -c 3 -i 14 -a 3 -x {7.0 2.0 1 ------- null}
+ -t 0.23472 -s 4 -d 3 -p ack -e 40 -c 3 -i 14 -a 3 -x {7.0 2.0 1 ------- null}
- -t 0.23472 -s 4 -d 3 -p ack -e 40 -c 3 -i 14 -a 3 -x {7.0 2.0 1 ------- null}
h -t 0.23472 -s 4 -d 3 -p ack -e 40 -c 3 -i 14 -a 3 -x {7.0 2.0 -1 ------- null}
r -t 0.23536 -s 3 -d 4 -p tcp -e 1040 -c 3 -i 11 -a 3 -x {2.0 7.0 2 ------- null}
+ -t 0.23536 -s 4 -d 7 -p tcp -e 1040 -c 3 -i 11 -a 3 -x {2.0 7.0 2 ------- null}
- -t 0.23536 -s 4 -d 7 -p tcp -e 1040 -c 3 -i 11 -a 3 -x {2.0 7.0 2 ------- null}
h -t 0.23536 -s 4 -d 7 -p tcp -e 1040 -c 3 -i 11 -a 3 -x {2.0 7.0 -1 ------- null}
r -t 0.23672 -s 4 -d 3 -p ack -e 40 -c 2 -i 13 -a 2 -x {6.0 1.0 1 ------- null}
+ -t 0.23672 -s 3 -d 1 -p ack -e 40 -c 2 -i 13 -a 2 -x {6.0 1.0 1 ------- null}
- -t 0.23672 -s 3 -d 1 -p ack -e 40 -c 2 -i 13 -a 2 -x {6.0 1.0 1 ------- null}
h -t 0.23672 -s 3 -d 1 -p ack -e 40 -c 2 -i 13 -a 2 -x {6.0 1.0 -1 ------- null}
r -t 0.23856 -s 3 -d 0 -p ack -e 40 -c 1 -i 12 -a 1 -x {5.0 0.0 1 ------- null}
+ -t 0.23856 -s 0 -d 3 -p tcp -e 1040 -c 1 -i 16 -a 1 -x {0.0 5.0 3 ------- null}
- -t 0.23856 -s 0 -d 3 -p tcp -e 1040 -c 1 -i 16 -a 1 -x {0.0 5.0 3 ------- null}
h -t 0.23856 -s 0 -d 3 -p tcp -e 1040 -c 1 -i 16 -a 1 -x {0.0 5.0 -1 ------- null}
+ -t 0.23856 -s 0 -d 3 -p tcp -e 1040 -c 1 -i 17 -a 1 -x {0.0 5.0 4 ------- null}
r -t 0.2412 -s 4 -d 6 -p tcp -e 1040 -c 2 -i 9 -a 2 -x {1.0 6.0 2 ------- null}
+ -t 0.2412 -s 6 -d 4 -p ack -e 40 -c 2 -i 18 -a 2 -x {6.0 1.0 2 ------- null}
- -t 0.2412 -s 6 -d 4 -p ack -e 40 -c 2 -i 18 -a 2 -x {6.0 1.0 2 ------- null}
h -t 0.2412 -s 6 -d 4 -p ack -e 40 -c 2 -i 18 -a 2 -x {6.0 1.0 -1 ------- null}
- -t 0.24272 -s 0 -d 3 -p tcp -e 1040 -c 1 -i 17 -a 1 -x {0.0 5.0 4 ------- null}
h -t 0.24272 -s 0 -d 3 -p tcp -e 1040 -c 1 -i 17 -a 1 -x {0.0 5.0 -1 ------- null}
r -t 0.24304 -s 5 -d 4 -p ack -e 40 -c 1 -i 15 -a 1 -x {5.0 0.0 2 ------- null}
+ -t 0.24304 -s 4 -d 3 -p ack -e 40 -c 1 -i 15 -a 1 -x {5.0 0.0 2 ------- null}
- -t 0.24304 -s 4 -d 3 -p ack -e 40 -c 1 -i 15 -a 1 -x {5.0 0.0 2 ------- null}
h -t 0.24304 -s 4 -d 3 -p ack -e 40 -c 1 -i 15 -a 1 -x {5.0 0.0 -1 ------- null}
r -t 0.24504 -s 4 -d 3 -p ack -e 40 -c 3 -i 14 -a 3 -x {7.0 2.0 1 ------- null}
+ -t 0.24504 -s 3 -d 2 -p ack -e 40 -c 3 -i 14 -a 3 -x {7.0 2.0 1 ------- null}
- -t 0.24504 -s 3 -d 2 -p ack -e 40 -c 3 -i 14 -a 3 -x {7.0 2.0 1 ------- null}
h -t 0.24504 -s 3 -d 2 -p ack -e 40 -c 3 -i 14 -a 3 -x {7.0 2.0 -1 ------- null}
r -t 0.24688 -s 3 -d 1 -p ack -e 40 -c 2 -i 13 -a 2 -x {6.0 1.0 1 ------- null}
+ -t 0.24688 -s 1 -d 3 -p tcp -e 1040 -c 2 -i 19 -a 2 -x {1.0 6.0 3 ------- null}
- -t 0.24688 -s 1 -d 3 -p tcp -e 1040 -c 2 -i 19 -a 2 -x {1.0 6.0 3 ------- null}
h -t 0.24688 -s 1 -d 3 -p tcp -e 1040 -c 2 -i 19 -a 2 -x {1.0 6.0 -1 ------- null}
+ -t 0.24688 -s 1 -d 3 -p tcp -e 1040 -c 2 -i 20 -a 2 -x {1.0 6.0 4 ------- null}
r -t 0.24952 -s 4 -d 7 -p tcp -e 1040 -c 3 -i 11 -a 3 -x {2.0 7.0 2 ------- null}
+ -t 0.24952 -s 7 -d 4 -p ack -e 40 -c 3 -i 21 -a 3 -x {7.0 2.0 2 ------- null}
- -t 0.24952 -s 7 -d 4 -p ack -e 40 -c 3 -i 21 -a 3 -x {7.0 2.0 2 ------- null}
h -t 0.24952 -s 7 -d 4 -p ack -e 40 -c 3 -i 21 -a 3 -x {7.0 2.0 -1 ------- null}
- -t 0.25104 -s 1 -d 3 -p tcp -e 1040 -c 2 -i 20 -a 2 -x {1.0 6.0 4 ------- null}
h -t 0.25104 -s 1 -d 3 -p tcp -e 1040 -c 2 -i 20 -a 2 -x {1.0 6.0 -1 ------- null}
r -t 0.25136 -s 6 -d 4 -p ack -e 40 -c 2 -i 18 -a 2 -x {6.0 1.0 2 ------- null}
+ -t 0.25136 -s 4 -d 3 -p ack -e 40 -c 2 -i 18 -a 2 -x {6.0 1.0 2 ------- null}
- -t 0.25136 -s 4 -d 3 -p ack -e 40 -c 2 -i 18 -a 2 -x {6.0 1.0 2 ------- null}
h -t 0.25136 -s 4 -d 3 -p ack -e 40 -c 2 -i 18 -a 2 -x {6.0 1.0 -1 ------- null}
r -t 0.25272 -s 0 -d 3 -p tcp -e 1040 -c 1 -i 16 -a 1 -x {0.0 5.0 3 ------- null}
+ -t 0.25272 -s 3 -d 4 -p tcp -e 1040 -c 1 -i 16 -a 1 -x {0.0 5.0 3 ------- null}
- -t 0.25272 -s 3 -d 4 -p tcp -e 1040 -c 1 -i 16 -a 1 -x {0.0 5.0 3 ------- null}
h -t 0.25272 -s 3 -d 4 -p tcp -e 1040 -c 1 -i 16 -a 1 -x {0.0 5.0 -1 ------- null}
r -t 0.25336 -s 4 -d 3 -p ack -e 40 -c 1 -i 15 -a 1 -x {5.0 0.0 2 ------- null}
+ -t 0.25336 -s 3 -d 0 -p ack -e 40 -c 1 -i 15 -a 1 -x {5.0 0.0 2 ------- null}
- -t 0.25336 -s 3 -d 0 -p ack -e 40 -c 1 -i 15 -a 1 -x {5.0 0.0 2 ------- null}
h -t 0.25336 -s 3 -d 0 -p ack -e 40 -c 1 -i 15 -a 1 -x {5.0 0.0 -1 ------- null}
r -t 0.2552 -s 3 -d 2 -p ack -e 40 -c 3 -i 14 -a 3 -x {7.0 2.0 1 ------- null}
+ -t 0.2552 -s 2 -d 3 -p tcp -e 1040 -c 3 -i 22 -a 3 -x {2.0 7.0 3 ------- null}
- -t 0.2552 -s 2 -d 3 -p tcp -e 1040 -c 3 -i 22 -a 3 -x {2.0 7.0 3 ------- null}
h -t 0.2552 -s 2 -d 3 -p tcp -e 1040 -c 3 -i 22 -a 3 -x {2.0 7.0 -1 ------- null}
+ -t 0.2552 -s 2 -d 3 -p tcp -e 1040 -c 3 -i 23 -a 3 -x {2.0 7.0 4 ------- null}
r -t 0.25688 -s 0 -d 3 -p tcp -e 1040 -c 1 -i 17 -a 1 -x {0.0 5.0 4 ------- null}
+ -t 0.25688 -s 3 -d 4 -p tcp -e 1040 -c 1 -i 17 -a 1 -x {0.0 5.0 4 ------- null}
- -t 0.25936 -s 2 -d 3 -p tcp -e 1040 -c 3 -i 23 -a 3 -x {2.0 7.0 4 ------- null}
h -t 0.25936 -s 2 -d 3 -p tcp -e 1040 -c 3 -i 23 -a 3 -x {2.0 7.0 -1 ------- null}
r -t 0.25968 -s 7 -d 4 -p ack -e 40 -c 3 -i 21 -a 3 -x {7.0 2.0 2 ------- null}
+ -t 0.25968 -s 4 -d 3 -p ack -e 40 -c 3 -i 21 -a 3 -x {7.0 2.0 2 ------- null}
- -t 0.25968 -s 4 -d 3 -p ack -e 40 -c 3 -i 21 -a 3 -x {7.0 2.0 2 ------- null}
h -t 0.25968 -s 4 -d 3 -p ack -e 40 -c 3 -i 21 -a 3 -x {7.0 2.0 -1 ------- null}
r -t 0.26104 -s 1 -d 3 -p tcp -e 1040 -c 2 -i 19 -a 2 -x {1.0 6.0 3 ------- null}
+ -t 0.26104 -s 3 -d 4 -p tcp -e 1040 -c 2 -i 19 -a 2 -x {1.0 6.0 3 ------- null}
- -t 0.26104 -s 3 -d 4 -p tcp -e 1040 -c 1 -i 17 -a 1 -x {0.0 5.0 4 ------- null}
h -t 0.26104 -s 3 -d 4 -p tcp -e 1040 -c 1 -i 17 -a 1 -x {0.0 5.0 -1 ------- null}
r -t 0.26168 -s 4 -d 3 -p ack -e 40 -c 2 -i 18 -a 2 -x {6.0 1.0 2 ------- null}
+ -t 0.26168 -s 3 -d 1 -p ack -e 40 -c 2 -i 18 -a 2 -x {6.0 1.0 2 ------- null}
- -t 0.26168 -s 3 -d 1 -p ack -e 40 -c 2 -i 18 -a 2 -x {6.0 1.0 2 ------- null}
h -t 0.26168 -s 3 -d 1 -p ack -e 40 -c 2 -i 18 -a 2 -x {6.0 1.0 -1 ------- null}
r -t 0.26352 -s 3 -d 0 -p ack -e 40 -c 1 -i 15 -a 1 -x {5.0 0.0 2 ------- null}
+ -t 0.26352 -s 0 -d 3 -p tcp -e 1040 -c 1 -i 24 -a 1 -x {0.0 5.0 5 ------- null}
- -t 0.26352 -s 0 -d 3 -p tcp -e 1040 -c 1 -i 24 -a 1 -x {0.0 5.0 5 ------- null}
h -t 0.26352 -s 0 -d 3 -p tcp -e 1040 -c 1 -i 24 -a 1 -x {0.0 5.0 -1 ------- null}
+ -t 0.26352 -s 0 -d 3 -p tcp -e 1040 -c 1 -i 25 -a 1 -x {0.0 5.0 6 ------- null}
r -t 0.2652 -s 1 -d 3 -p tcp -e 1040 -c 2 -i 20 -a 2 -x {1.0 6.0 4 ------- null}
+ -t 0.2652 -s 3 -d 4 -p tcp -e 1040 -c 2 -i 20 -a 2 -x {1.0 6.0 4 ------- null}
- -t 0.26768 -s 0 -d 3 -p tcp -e 1040 -c 1 -i 25 -a 1 -x {0.0 5.0 6 ------- null}
h -t 0.26768 -s 0 -d 3 -p tcp -e 1040 -c 1 -i 25 -a 1 -x {0.0 5.0 -1 ------- null}
r -t 0.26936 -s 2 -d 3 -p tcp -e 1040 -c 3 -i 22 -a 3 -x {2.0 7.0 3 ------- null}
+ -t 0.26936 -s 3 -d 4 -p tcp -e 1040 -c 3 -i 22 -a 3 -x {2.0 7.0 3 ------- null}
- -t 0.26936 -s 3 -d 4 -p tcp -e 1040 -c 2 -i 19 -a 2 -x {1.0 6.0 3 ------- null}
h -t 0.26936 -s 3 -d 4 -p tcp -e 1040 -c 2 -i 19 -a 2 -x {1.0 6.0 -1 ------- null}
r -t 0.27 -s 4 -d 3 -p ack -e 40 -c 3 -i 21 -a 3 -x {7.0 2.0 2 ------- null}
+ -t 0.27 -s 3 -d 2 -p ack -e 40 -c 3 -i 21 -a 3 -x {7.0 2.0 2 ------- null}
- -t 0.27 -s 3 -d 2 -p ack -e 40 -c 3 -i 21 -a 3 -x {7.0 2.0 2 ------- null}
h -t 0.27 -s 3 -d 2 -p ack -e 40 -c 3 -i 21 -a 3 -x {7.0 2.0 -1 ------- null}
r -t 0.27104 -s 3 -d 4 -p tcp -e 1040 -c 1 -i 16 -a 1 -x {0.0 5.0 3 ------- null}
+ -t 0.27104 -s 4 -d 5 -p tcp -e 1040 -c 1 -i 16 -a 1 -x {0.0 5.0 3 ------- null}
- -t 0.27104 -s 4 -d 5 -p tcp -e 1040 -c 1 -i 16 -a 1 -x {0.0 5.0 3 ------- null}
h -t 0.27104 -s 4 -d 5 -p tcp -e 1040 -c 1 -i 16 -a 1 -x {0.0 5.0 -1 ------- null}
r -t 0.27184 -s 3 -d 1 -p ack -e 40 -c 2 -i 18 -a 2 -x {6.0 1.0 2 ------- null}
+ -t 0.27184 -s 1 -d 3 -p tcp -e 1040 -c 2 -i 26 -a 2 -x {1.0 6.0 5 ------- null}
- -t 0.27184 -s 1 -d 3 -p tcp -e 1040 -c 2 -i 26 -a 2 -x {1.0 6.0 5 ------- null}
h -t 0.27184 -s 1 -d 3 -p tcp -e 1040 -c 2 -i 26 -a 2 -x {1.0 6.0 -1 ------- null}
+ -t 0.27184 -s 1 -d 3 -p tcp -e 1040 -c 2 -i 27 -a 2 -x {1.0 6.0 6 ------- null}
r -t 0.27352 -s 2 -d 3 -p tcp -e 1040 -c 3 -i 23 -a 3 -x {2.0 7.0 4 ------- null}
+ -t 0.27352 -s 3 -d 4 -p tcp -e 1040 -c 3 -i 23 -a 3 -x {2.0 7.0 4 ------- null}
- -t 0.276 -s 1 -d 3 -p tcp -e 1040 -c 2 -i 27 -a 2 -x {1.0 6.0 6 ------- null}
h -t 0.276 -s 1 -d 3 -p tcp -e 1040 -c 2 -i 27 -a 2 -x {1.0 6.0 -1 ------- null}
- -t 0.27768 -s 3 -d 4 -p tcp -e 1040 -c 2 -i 20 -a 2 -x {1.0 6.0 4 ------- null}
h -t 0.27768 -s 3 -d 4 -p tcp -e 1040 -c 2 -i 20 -a 2 -x {1.0 6.0 -1 ------- null}
r -t 0.27768 -s 0 -d 3 -p tcp -e 1040 -c 1 -i 24 -a 1 -x {0.0 5.0 5 ------- null}
+ -t 0.27768 -s 3 -d 4 -p tcp -e 1040 -c 1 -i 24 -a 1 -x {0.0 5.0 5 ------- null}
r -t 0.27936 -s 3 -d 4 -p tcp -e 1040 -c 1 -i 17 -a 1 -x {0.0 5.0 4 ------- null}
+ -t 0.27936 -s 4 -d 5 -p tcp -e 1040 -c 1 -i 17 -a 1 -x {0.0 5.0 4 ------- null}
- -t 0.27936 -s 4 -d 5 -p tcp -e 1040 -c 1 -i 17 -a 1 -x {0.0 5.0 4 ------- null}
h -t 0.27936 -s 4 -d 5 -p tcp -e 1040 -c 1 -i 17 -a 1 -x {0.0 5.0 -1 ------- null}
r -t 0.28016 -s 3 -d 2 -p ack -e 40 -c 3 -i 21 -a 3 -x {7.0 2.0 2 ------- null}
+ -t 0.28016 -s 2 -d 3 -p tcp -e 1040 -c 3 -i 28 -a 3 -x {2.0 7.0 5 ------- null}
- -t 0.28016 -s 2 -d 3 -p tcp -e 1040 -c 3 -i 28 -a 3 -x {2.0 7.0 5 ------- null}
h -t 0.28016 -s 2 -d 3 -p tcp -e 1040 -c 3 -i 28 -a 3 -x {2.0 7.0 -1 ------- null}
+ -t 0.28016 -s 2 -d 3 -p tcp -e 1040 -c 3 -i 29 -a 3 -x {2.0 7.0 6 ------- null}
r -t 0.28184 -s 0 -d 3 -p tcp -e 1040 -c 1 -i 25 -a 1 -x {0.0 5.0 6 ------- null}
+ -t 0.28184 -s 3 -d 4 -p tcp -e 1040 -c 1 -i 25 -a 1 -x {0.0 5.0 6 ------- null}
- -t 0.28432 -s 2 -d 3 -p tcp -e 1040 -c 3 -i 29 -a 3 -x {2.0 7.0 6 ------- null}
h -t 0.28432 -s 2 -d 3 -p tcp -e 1040 -c 3 -i 29 -a 3 -x {2.0 7.0 -1 ------- null}
r -t 0.2852 -s 4 -d 5 -p tcp -e 1040 -c 1 -i 16 -a 1 -x {0.0 5.0 3 ------- null}
+ -t 0.2852 -s 5 -d 4 -p ack -e 40 -c 1 -i 30 -a 1 -x {5.0 0.0 3 ------- null}
- -t 0.2852 -s 5 -d 4 -p ack -e 40 -c 1 -i 30 -a 1 -x {5.0 0.0 3 ------- null}
h -t 0.2852 -s 5 -d 4 -p ack -e 40 -c 1 -i 30 -a 1 -x {5.0 0.0 -1 ------- null}
r -t 0.286 -s 1 -d 3 -p tcp -e 1040 -c 2 -i 26 -a 2 -x {1.0 6.0 5 ------- null}
+ -t 0.286 -s 3 -d 4 -p tcp -e 1040 -c 2 -i 26 -a 2 -x {1.0 6.0 5 ------- null}
- -t 0.286 -s 3 -d 4 -p tcp -e 1040 -c 3 -i 22 -a 3 -x {2.0 7.0 3 ------- null}
h -t 0.286 -s 3 -d 4 -p tcp -e 1040 -c 3 -i 22 -a 3 -x {2.0 7.0 -1 ------- null}
r -t 0.28768 -s 3 -d 4 -p tcp -e 1040 -c 2 -i 19 -a 2 -x {1.0 6.0 3 ------- null}
+ -t 0.28768 -s 4 -d 6 -p tcp -e 1040 -c 2 -i 19 -a 2 -x {1.0 6.0 3 ------- null}
- -t 0.28768 -s 4 -d 6 -p tcp -e 1040 -c 2 -i 19 -a 2 -x {1.0 6.0 3 ------- null}
h -t 0.28768 -s 4 -d 6 -p tcp -e 1040 -c 2 -i 19 -a 2 -x {1.0 6.0 -1 ------- null}
r -t 0.29016 -s 1 -d 3 -p tcp -e 1040 -c 2 -i 27 -a 2 -x {1.0 6.0 6 ------- null}
+ -t 0.29016 -s 3 -d 4 -p tcp -e 1040 -c 2 -i 27 -a 2 -x {1.0 6.0 6 ------- null}
r -t 0.29352 -s 4 -d 5 -p tcp -e 1040 -c 1 -i 17 -a 1 -x {0.0 5.0 4 ------- null}
+ -t 0.29352 -s 5 -d 4 -p ack -e 40 -c 1 -i 31 -a 1 -x {5.0 0.0 4 ------- null}
- -t 0.29352 -s 5 -d 4 -p ack -e 40 -c 1 -i 31 -a 1 -x {5.0 0.0 4 ------- null}
h -t 0.29352 -s 5 -d 4 -p ack -e 40 -c 1 -i 31 -a 1 -x {5.0 0.0 -1 ------- null}
r -t 0.29432 -s 2 -d 3 -p tcp -e 1040 -c 3 -i 28 -a 3 -x {2.0 7.0 5 ------- null}
+ -t 0.29432 -s 3 -d 4 -p tcp -e 1040 -c 3 -i 28 -a 3 -x {2.0 7.0 5 ------- null}
- -t 0.29432 -s 3 -d 4 -p tcp -e 1040 -c 3 -i 23 -a 3 -x {2.0 7.0 4 ------- null}
h -t 0.29432 -s 3 -d 4 -p tcp -e 1040 -c 3 -i 23 -a 3 -x {2.0 7.0 -1 ------- null}
r -t 0.29536 -s 5 -d 4 -p ack -e 40 -c 1 -i 30 -a 1 -x {5.0 0.0 3 ------- null}
+ -t 0.29536 -s 4 -d 3 -p ack -e 40 -c 1 -i 30 -a 1 -x {5.0 0.0 3 ------- null}
- -t 0.29536 -s 4 -d 3 -p ack -e 40 -c 1 -i 30 -a 1 -x {5.0 0.0 3 ------- null}
h -t 0.29536 -s 4 -d 3 -p ack -e 40 -c 1 -i 30 -a 1 -x {5.0 0.0 -1 ------- null}
r -t 0.296 -s 3 -d 4 -p tcp -e 1040 -c 2 -i 20 -a 2 -x {1.0 6.0 4 ------- null}
+ -t 0.296 -s 4 -d 6 -p tcp -e 1040 -c 2 -i 20 -a 2 -x {1.0 6.0 4 ------- null}
- -t 0.296 -s 4 -d 6 -p tcp -e 1040 -c 2 -i 20 -a 2 -x {1.0 6.0 4 ------- null}
h -t 0.296 -s 4 -d 6 -p tcp -e 1040 -c 2 -i 20 -a 2 -x {1.0 6.0 -1 ------- null}
r -t 0.29848 -s 2 -d 3 -p tcp -e 1040 -c 3 -i 29 -a 3 -x {2.0 7.0 6 ------- null}
+ -t 0.29848 -s 3 -d 4 -p tcp -e 1040 -c 3 -i 29 -a 3 -x {2.0 7.0 6 ------- null}
r -t 0.30184 -s 4 -d 6 -p tcp -e 1040 -c 2 -i 19 -a 2 -x {1.0 6.0 3 ------- null}
+ -t 0.30184 -s 6 -d 4 -p ack -e 40 -c 2 -i 32 -a 2 -x {6.0 1.0 3 ------- null}
- -t 0.30184 -s 6 -d 4 -p ack -e 40 -c 2 -i 32 -a 2 -x {6.0 1.0 3 ------- null}
h -t 0.30184 -s 6 -d 4 -p ack -e 40 -c 2 -i 32 -a 2 -x {6.0 1.0 -1 ------- null}
- -t 0.30264 -s 3 -d 4 -p tcp -e 1040 -c 1 -i 24 -a 1 -x {0.0 5.0 5 ------- null}
h -t 0.30264 -s 3 -d 4 -p tcp -e 1040 -c 1 -i 24 -a 1 -x {0.0 5.0 -1 ------- null}
r -t 0.30368 -s 5 -d 4 -p ack -e 40 -c 1 -i 31 -a 1 -x {5.0 0.0 4 ------- null}
+ -t 0.30368 -s 4 -d 3 -p ack -e 40 -c 1 -i 31 -a 1 -x {5.0 0.0 4 ------- null}
- -t 0.30368 -s 4 -d 3 -p ack -e 40 -c 1 -i 31 -a 1 -x {5.0 0.0 4 ------- null}
h -t 0.30368 -s 4 -d 3 -p ack -e 40 -c 1 -i 31 -a 1 -x {5.0 0.0 -1 ------- null}
r -t 0.30432 -s 3 -d 4 -p tcp -e 1040 -c 3 -i 22 -a 3 -x {2.0 7.0 3 ------- null}
+ -t 0.30432 -s 4 -d 7 -p tcp -e 1040 -c 3 -i 22 -a 3 -x {2.0 7.0 3 ------- null}
- -t 0.30432 -s 4 -d 7 -p tcp -e 1040 -c 3 -i 22 -a 3 -x {2.0 7.0 3 ------- null}
h -t 0.30432 -s 4 -d 7 -p tcp -e 1040 -c 3 -i 22 -a 3 -x {2.0 7.0 -1 ------- null}
r -t 0.30568 -s 4 -d 3 -p ack -e 40 -c 1 -i 30 -a 1 -x {5.0 0.0 3 ------- null}
+ -t 0.30568 -s 3 -d 0 -p ack -e 40 -c 1 -i 30 -a 1 -x {5.0 0.0 3 ------- null}
- -t 0.30568 -s 3 -d 0 -p ack -e 40 -c 1 -i 30 -a 1 -x {5.0 0.0 3 ------- null}
h -t 0.30568 -s 3 -d 0 -p ack -e 40 -c 1 -i 30 -a 1 -x {5.0 0.0 -1 ------- null}
r -t 0.31016 -s 4 -d 6 -p tcp -e 1040 -c 2 -i 20 -a 2 -x {1.0 6.0 4 ------- null}
+ -t 0.31016 -s 6 -d 4 -p ack -e 40 -c 2 -i 33 -a 2 -x {6.0 1.0 4 ------- null}
- -t 0.31016 -s 6 -d 4 -p ack -e 40 -c 2 -i 33 -a 2 -x {6.0 1.0 4 ------- null}
h -t 0.31016 -s 6 -d 4 -p ack -e 40 -c 2 -i 33 -a 2 -x {6.0 1.0 -1 ------- null}
- -t 0.31096 -s 3 -d 4 -p tcp -e 1040 -c 1 -i 25 -a 1 -x {0.0 5.0 6 ------- null}
h -t 0.31096 -s 3 -d 4 -p tcp -e 1040 -c 1 -i 25 -a 1 -x {0.0 5.0 -1 ------- null}
r -t 0.312 -s 6 -d 4 -p ack -e 40 -c 2 -i 32 -a 2 -x {6.0 1.0 3 ------- null}
+ -t 0.312 -s 4 -d 3 -p ack -e 40 -c 2 -i 32 -a 2 -x {6.0 1.0 3 ------- null}
- -t 0.312 -s 4 -d 3 -p ack -e 40 -c 2 -i 32 -a 2 -x {6.0 1.0 3 ------- null}
h -t 0.312 -s 4 -d 3 -p ack -e 40 -c 2 -i 32 -a 2 -x {6.0 1.0 -1 ------- null}
r -t 0.31264 -s 3 -d 4 -p tcp -e 1040 -c 3 -i 23 -a 3 -x {2.0 7.0 4 ------- null}
+ -t 0.31264 -s 4 -d 7 -p tcp -e 1040 -c 3 -i 23 -a 3 -x {2.0 7.0 4 ------- null}
- -t 0.31264 -s 4 -d 7 -p tcp -e 1040 -c 3 -i 23 -a 3 -x {2.0 7.0 4 ------- null}
h -t 0.31264 -s 4 -d 7 -p tcp -e 1040 -c 3 -i 23 -a 3 -x {2.0 7.0 -1 ------- null}
r -t 0.314 -s 4 -d 3 -p ack -e 40 -c 1 -i 31 -a 1 -x {5.0 0.0 4 ------- null}
+ -t 0.314 -s 3 -d 0 -p ack -e 40 -c 1 -i 31 -a 1 -x {5.0 0.0 4 ------- null}
- -t 0.314 -s 3 -d 0 -p ack -e 40 -c 1 -i 31 -a 1 -x {5.0 0.0 4 ------- null}
h -t 0.314 -s 3 -d 0 -p ack -e 40 -c 1 -i 31 -a 1 -x {5.0 0.0 -1 ------- null}
r -t 0.31584 -s 3 -d 0 -p ack -e 40 -c 1 -i 30 -a 1 -x {5.0 0.0 3 ------- null}
+ -t 0.31584 -s 0 -d 3 -p tcp -e 1040 -c 1 -i 34 -a 1 -x {0.0 5.0 7 ------- null}
- -t 0.31584 -s 0 -d 3 -p tcp -e 1040 -c 1 -i 34 -a 1 -x {0.0 5.0 7 ------- null}
h -t 0.31584 -s 0 -d 3 -p tcp -e 1040 -c 1 -i 34 -a 1 -x {0.0 5.0 -1 ------- null}
+ -t 0.31584 -s 0 -d 3 -p tcp -e 1040 -c 1 -i 35 -a 1 -x {0.0 5.0 8 ------- null}
r -t 0.31848 -s 4 -d 7 -p tcp -e 1040 -c 3 -i 22 -a 3 -x {2.0 7.0 3 ------- null}
+ -t 0.31848 -s 7 -d 4 -p ack -e 40 -c 3 -i 36 -a 3 -x {7.0 2.0 3 ------- null}
- -t 0.31848 -s 7 -d 4 -p ack -e 40 -c 3 -i 36 -a 3 -x {7.0 2.0 3 ------- null}
h -t 0.31848 -s 7 -d 4 -p ack -e 40 -c 3 -i 36 -a 3 -x {7.0 2.0 -1 ------- null}