+ 0.1 0 3 tcp 40 ------- 1 0.0 5.0 0 0
- 0.1 0 3 tcp 40 ------- 1 0.0 5.0 0 0
+ 0.1 1 3 tcp 40 ------- 2 1.0 6.0 0 1
- 0.1 1 3 tcp 40 ------- 2 1.0 6.0 0 1
+ 0.1 2 3 tcp 40 ------- 3 2.0 7.0 0 2
- 0.1 2 3 tcp 40 ------- 3 2.0 7.0 0 2
r 0.11016 0 3 tcp 40 ------- 1 0.0 5.0 0 0
+ 0.11016 3 4 tcp 40 ------- 1 0.0 5.0 0 0
- 0.11016 3 4 tcp 40 ------- 1 0.0 5.0 0 0
r 0.11016 1 3 tcp 40 ------- 2 1.0 6.0 0 1
+ 0.11016 3 4 tcp 40 ------- 2 1.0 6.0 0 1
r 0.11016 2 3 tcp 40 ------- 3 2.0 7.0 0 2
+ 0.11016 3 4 tcp 40 ------- 3 2.0 7.0 0 2
- 0.11048 3 4 tcp 40 ------- 2 1.0 6.0 0 1
- 0.1108 3 4 tcp 40 ------- 3 2.0 7.0 0 2
r 0.12048 3 4 tcp 40 ------- 1 0.0 5.0 0 0
+ 0.12048 4 5 tcp 40 ------- 1 0.0 5.0 0 0
- 0.12048 4 5 tcp 40 ------- 1 0.0 5.0 0 0
r 0.1208 3 4 tcp 40 ------- 2 1.0 6.0 0 1
+ 0.1208 4 6 tcp 40 ------- 2 1.0 6.0 0 1
- 0.1208 4 6 tcp 40 ------- 2 1.0 6.0 0 1
r 0.12112 3 4 tcp 40 ------- 3 2.0 7.0 0 2
+ 0.12112 4 7 tcp 40 ------- 3 2.0 7.0 0 2
- 0.12112 4 7 tcp 40 ------- 3 2.0 7.0 0 2
r 0.13064 4 5 tcp 40 ------- 1 0.0 5.0 0 0
+ 0.13064 5 4 ack 40 ------- 1 5.0 0.0 0 3
- 0.13064 5 4 ack 40 ------- 1 5.0 0.0 0 3
r 0.13096 4 6 tcp 40 ------- 2 1.0 6.0 0 1
+ 0.13096 6 4 ack 40 ------- 2 6.0 1.0 0 4
- 0.13096 6 4 ack 40 ------- 2 6.0 1.0 0 4
r 0.13128 4 7 tcp 40 ------- 3 2.0 7.0 0 2
+ 0.13128 7 4 ack 40 ------- 3 7.0 2.0 0 5
- 0.13128 7 4 ack 40 ------- 3 7.0 2.0 0 5
r 0.1408 5 4 ack 40 ------- 1 5.0 0.0 0 3
+ 0.1408 4 3 ack 40 ------- 1 5.0 0.0 0 3
- 0.1408 4 3 ack 40 ------- 1 5.0 0.0 0 3
r 0.14112 6 4 ack 40 ------- 2 6.0 1.0 0 4
+ 0.14112 4 3 ack 40 ------- 2 6.0 1.0 0 4
- 0.14112 4 3 ack 40 ------- 2 6.0 1.0 0 4
r 0.14144 7 4 ack 40 ------- 3 7.0 2.0 0 5
+ 0.14144 4 3 ack 40 ------- 3 7.0 2.0 0 5
- 0.14144 4 3 ack 40 ------- 3 7.0 2.0 0 5
r 0.15112 4 3 ack 40 ------- 1 5.0 0.0 0 3
+ 0.15112 3 0 ack 40 ------- 1 5.0 0.0 0 3
- 0.15112 3 0 ack 40 ------- 1 5.0 0.0 0 3
r 0.15144 4 3 ack 40 ------- 2 6.0 1.0 0 4
+ 0.15144 3 1 ack 40 ------- 2 6.0 1.0 0 4
- 0.15144 3 1 ack 40 ------- 2 6.0 1.0 0 4
r 0.15176 4 3 ack 40 ------- 3 7.0 2.0 0 5
+ 0.15176 3 2 ack 40 ------- 3 7.0 2.0 0 5
- 0.15176 3 2 ack 40 ------- 3 7.0 2.0 0 5
r 0.16128 3 0 ack 40 ------- 1 5.0 0.0 0 3
+ 0.16128 0 3 tcp 1040 ------- 1 0.0 5.0 1 6
- 0.16128 0 3 tcp 1040 ------- 1 0.0 5.0 1 6
+ 0.16128 0 3 tcp 1040 ------- 1 0.0 5.0 2 7
r 0.1616 3 1 ack 40 ------- 2 6.0 1.0 0 4
+ 0.1616 1 3 tcp 1040 ------- 2 1.0 6.0 1 8
- 0.1616 1 3 tcp 1040 ------- 2 1.0 6.0 1 8
+ 0.1616 1 3 tcp 1040 ------- 2 1.0 6.0 2 9
r 0.16192 3 2 ack 40 ------- 3 7.0 2.0 0 5
+ 0.16192 2 3 tcp 1040 ------- 3 2.0 7.0 1 10
- 0.16192 2 3 tcp 1040 ------- 3 2.0 7.0 1 10
+ 0.16192 2 3 tcp 1040 ------- 3 2.0 7.0 2 11
- 0.16544 0 3 tcp 1040 ------- 1 0.0 5.0 2 7
- 0.16576 1 3 tcp 1040 ------- 2 1.0 6.0 2 9
- 0.16608 2 3 tcp 1040 ------- 3 2.0 7.0 2 11
r 0.17544 0 3 tcp 1040 ------- 1 0.0 5.0 1 6
+ 0.17544 3 4 tcp 1040 ------- 1 0.0 5.0 1 6
- 0.17544 3 4 tcp 1040 ------- 1 0.0 5.0 1 6
r 0.17576 1 3 tcp 1040 ------- 2 1.0 6.0 1 8
+ 0.17576 3 4 tcp 1040 ------- 2 1.0 6.0 1 8
r 0.17608 2 3 tcp 1040 ------- 3 2.0 7.0 1 10
+ 0.17608 3 4 tcp 1040 ------- 3 2.0 7.0 1 10
r 0.1796 0 3 tcp 1040 ------- 1 0.0 5.0 2 7
+ 0.1796 3 4 tcp 1040 ------- 1 0.0 5.0 2 7
r 0.17992 1 3 tcp 1040 ------- 2 1.0 6.0 2 9
+ 0.17992 3 4 tcp 1040 ------- 2 1.0 6.0 2 9
r 0.18024 2 3 tcp 1040 ------- 3 2.0 7.0 2 11
+ 0.18024 3 4 tcp 1040 ------- 3 2.0 7.0 2 11
- 0.18376 3 4 tcp 1040 ------- 2 1.0 6.0 1 8
- 0.19208 3 4 tcp 1040 ------- 3 2.0 7.0 1 10
r 0.19376 3 4 tcp 1040 ------- 1 0.0 5.0 1 6
+ 0.19376 4 5 tcp 1040 ------- 1 0.0 5.0 1 6
- 0.19376 4 5 tcp 1040 ------- 1 0.0 5.0 1 6
- 0.2004 3 4 tcp 1040 ------- 1 0.0 5.0 2 7
r 0.20208 3 4 tcp 1040 ------- 2 1.0 6.0 1 8
+ 0.20208 4 6 tcp 1040 ------- 2 1.0 6.0 1 8
- 0.20208 4 6 tcp 1040 ------- 2 1.0 6.0 1 8
r 0.20792 4 5 tcp 1040 ------- 1 0.0 5.0 1 6
+ 0.20792 5 4 ack 40 ------- 1 5.0 0.0 1 12
- 0.20792 5 4 ack 40 ------- 1 5.0 0.0 1 12
- 0.20872 3 4 tcp 1040 ------- 2 1.0 6.0 2 9
r 0.2104 3 4 tcp 1040 ------- 3 2.0 7.0 1 10
+ 0.2104 4 7 tcp 1040 ------- 3 2.0 7.0 1 10
- 0.2104 4 7 tcp 1040 ------- 3 2.0 7.0 1 10
r 0.21624 4 6 tcp 1040 ------- 2 1.0 6.0 1 8
+ 0.21624 6 4 ack 40 ------- 2 6.0 1.0 1 13
- 0.21624 6 4 ack 40 ------- 2 6.0 1.0 1 13
- 0.21704 3 4 tcp 1040 ------- 3 2.0 7.0 2 11
r 0.21808 5 4 ack 40 ------- 1 5.0 0.0 1 12
+ 0.21808 4 3 ack 40 ------- 1 5.0 0.0 1 12
- 0.21808 4 3 ack 40 ------- 1 5.0 0.0 1 12
r 0.21872 3 4 tcp 1040 ------- 1 0.0 5.0 2 7
+ 0.21872 4 5 tcp 1040 ------- 1 0.0 5.0 2 7
- 0.21872 4 5 tcp 1040 ------- 1 0.0 5.0 2 7
r 0.22456 4 7 tcp 1040 ------- 3 2.0 7.0 1 10
+ 0.22456 7 4 ack 40 ------- 3 7.0 2.0 1 14
- 0.22456 7 4 ack 40 ------- 3 7.0 2.0 1 14
r 0.2264 6 4 ack 40 ------- 2 6.0 1.0 1 13
+ 0.2264 4 3 ack 40 ------- 2 6.0 1.0 1 13
- 0.2264 4 3 ack 40 ------- 2 6.0 1.0 1 13
r 0.22704 3 4 tcp 1040 ------- 2 1.0 6.0 2 9
+ 0.22704 4 6 tcp 1040 ------- 2 1.0 6.0 2 9
- 0.22704 4 6 tcp 1040 ------- 2 1.0 6.0 2 9
r 0.2284 4 3 ack 40 ------- 1 5.0 0.0 1 12
+ 0.2284 3 0 ack 40 ------- 1 5.0 0.0 1 12
- 0.2284 3 0 ack 40 ------- 1 5.0 0.0 1 12
r 0.23288 4 5 tcp 1040 ------- 1 0.0 5.0 2 7
+ 0.23288 5 4 ack 40 ------- 1 5.0 0.0 2 15
- 0.23288 5 4 ack 40 ------- 1 5.0 0.0 2 15
r 0.23472 7 4 ack 40 ------- 3 7.0 2.0 1 14
+ 0.23472 4 3 ack 40 ------- 3 7.0 2.0 1 14
- 0.23472 4 3 ack 40 ------- 3 7.0 2.0 1 14
r 0.23536 3 4 tcp 1040 ------- 3 2.0 7.0 2 11
+ 0.23536 4 7 tcp 1040 ------- 3 2.0 7.0 2 11
- 0.23536 4 7 tcp 1040 ------- 3 2.0 7.0 2 11
r 0.23672 4 3 ack 40 ------- 2 6.0 1.0 1 13
+ 0.23672 3 1 ack 40 ------- 2 6.0 1.0 1 13
- 0.23672 3 1 ack 40 ------- 2 6.0 1.0 1 13
r 0.23856 3 0 ack 40 ------- 1 5.0 0.0 1 12
+ 0.23856 0 3 tcp 1040 ------- 1 0.0 5.0 3 16
- 0.23856 0 3 tcp 1040 ------- 1 0.0 5.0 3 16
+ 0.23856 0 3 tcp 1040 ------- 1 0.0 5.0 4 17
r 0.2412 4 6 tcp 1040 ------- 2 1.0 6.0 2 9
+ 0.2412 6 4 ack 40 ------- 2 6.0 1.0 2 18
- 0.2412 6 4 ack 40 ------- 2 6.0 1.0 2 18
- 0.24272 0 3 tcp 1040 ------- 1 0.0 5.0 4 17
r 0.24304 5 4 ack 40 ------- 1 5.0 0.0 2 15
+ 0.24304 4 3 ack 40 ------- 1 5.0 0.0 2 15
- 0.24304 4 3 ack 40 ------- 1 5.0 0.0 2 15
r 0.24504 4 3 ack 40 ------- 3 7.0 2.0 1 14
+ 0.24504 3 2 ack 40 ------- 3 7.0 2.0 1 14
- 0.24504 3 2 ack 40 ------- 3 7.0 2.0 1 14
r 0.24688 3 1 ack 40 ------- 2 6.0 1.0 1 13
+ 0.24688 1 3 tcp 1040 ------- 2 1.0 6.0 3 19
- 0.24688 1 3 tcp 1040 ------- 2 1.0 6.0 3 19
+ 0.24688 1 3 tcp 1040 ------- 2 1.0 6.0 4 20
r 0.24952 4 7 tcp 1040 ------- 3 2.0 7.0 2 11
+ 0.24952 7 4 ack 40 ------- 3 7.0 2.0 2 21
- 0.24952 7 4 ack 40 ------- 3 7.0 2.0 2 21
- 0.25104 1 3 tcp 1040 ------- 2 1.0 6.0 4 20
r 0.25136 6 4 ack 40 ------- 2 6.0 1.0 2 18
+ 0.25136 4 3 ack 40 ------- 2 6.0 1.0 2 18
- 0.25136 4 3 ack 40 ------- 2 6.0 1.0 2 18
r 0.25272 0 3 tcp 1040 ------- 1 0.0 5.0 3 16
+ 0.25272 3 4 tcp 1040 ------- 1 0.0 5.0 3 16
- 0.25272 3 4 tcp 1040 ------- 1 0.0 5.0 3 16
r 0.25336 4 3 ack 40 ------- 1 5.0 0.0 2 15
+ 0.25336 3 0 ack 40 ------- 1 5.0 0.0 2 15
- 0.25336 3 0 ack 40 ------- 1 5.0 0.0 2 15
r 0.2552 3 2 ack 40 ------- 3 7.0 2.0 1 14
+ 0.2552 2 3 tcp 1040 ------- 3 2.0 7.0 3 22
- 0.2552 2 3 tcp 1040 ------- 3 2.0 7.0 3 22
+ 0.2552 2 3 tcp 1040 ------- 3 2.0 7.0 4 23
r 0.25688 0 3 tcp 1040 ------- 1 0.0 5.0 4 17
+ 0.25688 3 4 tcp 1040 ------- 1 0.0 5.0 4 17
- 0.25936 2 3 tcp 1040 ------- 3 2.0 7.0 4 23
r 0.25968 7 4 ack 40 ------- 3 7.0 2.0 2 21
+ 0.25968 4 3 ack 40 ------- 3 7.0 2.0 2 21
- 0.25968 4 3 ack 40 ------- 3 7.0 2.0 2 21
r 0.26104 1 3 tcp 1040 ------- 2 1.0 6.0 3 19
+ 0.26104 3 4 tcp 1040 ------- 2 1.0 6.0 3 19
- 0.26104 3 4 tcp 1040 ------- 1 0.0 5.0 4 17
r 0.26168 4 3 ack 40 ------- 2 6.0 1.0 2 18
+ 0.26168 3 1 ack 40 ------- 2 6.0 1.0 2 18
- 0.26168 3 1 ack 40 ------- 2 6.0 1.0 2 18
r 0.26352 3 0 ack 40 ------- 1 5.0 0.0 2 15
+ 0.26352 0 3 tcp 1040 ------- 1 0.0 5.0 5 24
- 0.26352 0 3 tcp 1040 ------- 1 0.0 5.0 5 24
+ 0.26352 0 3 tcp 1040 ------- 1 0.0 5.0 6 25
r 0.2652 1 3 tcp 1040 ------- 2 1.0 6.0 4 20
+ 0.2652 3 4 tcp 1040 ------- 2 1.0 6.0 4 20
- 0.26768 0 3 tcp 1040 ------- 1 0.0 5.0 6 25
r 0.26936 2 3 tcp 1040 ------- 3 2.0 7.0 3 22
+ 0.26936 3 4 tcp 1040 ------- 3 2.0 7.0 3 22
- 0.26936 3 4 tcp 1040 ------- 2 1.0 6.0 3 19
r 0.27 4 3 ack 40 ------- 3 7.0 2.0 2 21
+ 0.27 3 2 ack 40 ------- 3 7.0 2.0 2 21
- 0.27 3 2 ack 40 ------- 3 7.0 2.0 2 21
r 0.27104 3 4 tcp 1040 ------- 1 0.0 5.0 3 16
+ 0.27104 4 5 tcp 1040 ------- 1 0.0 5.0 3 16
- 0.27104 4 5 tcp 1040 ------- 1 0.0 5.0 3 16
r 0.27184 3 1 ack 40 ------- 2 6.0 1.0 2 18
+ 0.27184 1 3 tcp 1040 ------- 2 1.0 6.0 5 26
- 0.27184 1 3 tcp 1040 ------- 2 1.0 6.0 5 26
+ 0.27184 1 3 tcp 1040 ------- 2 1.0 6.0 6 27
r 0.27352 2 3 tcp 1040 ------- 3 2.0 7.0 4 23
+ 0.27352 3 4 tcp 1040 ------- 3 2.0 7.0 4 23
- 0.276 1 3 tcp 1040 ------- 2 1.0 6.0 6 27
- 0.27768 3 4 tcp 1040 ------- 2 1.0 6.0 4 20
r 0.27768 0 3 tcp 1040 ------- 1 0.0 5.0 5 24
+ 0.27768 3 4 tcp 1040 ------- 1 0.0 5.0 5 24
r 0.27936 3 4 tcp 1040 ------- 1 0.0 5.0 4 17
+ 0.27936 4 5 tcp 1040 ------- 1 0.0 5.0 4 17
- 0.27936 4 5 tcp 1040 ------- 1 0.0 5.0 4 17
r 0.28016 3 2 ack 40 ------- 3 7.0 2.0 2 21
+ 0.28016 2 3 tcp 1040 ------- 3 2.0 7.0 5 28
- 0.28016 2 3 tcp 1040 ------- 3 2.0 7.0 5 28
+ 0.28016 2 3 tcp 1040 ------- 3 2.0 7.0 6 29
r 0.28184 0 3 tcp 1040 ------- 1 0.0 5.0 6 25
+ 0.28184 3 4 tcp 1040 ------- 1 0.0 5.0 6 25
- 0.28432 2 3 tcp 1040 ------- 3 2.0 7.0 6 29
r 0.2852 4 5 tcp 1040 ------- 1 0.0 5.0 3 16
+ 0.2852 5 4 ack 40 ------- 1 5.0 0.0 3 30
- 0.2852 5 4 ack 40 ------- 1 5.0 0.0 3 30
r 0.286 1 3 tcp 1040 ------- 2 1.0 6.0 5 26
+ 0.286 3 4 tcp 1040 ------- 2 1.0 6.0 5 26
- 0.286 3 4 tcp 1040 ------- 3 2.0 7.0 3 22
r 0.28768 3 4 tcp 1040 ------- 2 1.0 6.0 3 19
+ 0.28768 4 6 tcp 1040 ------- 2 1.0 6.0 3 19
- 0.28768 4 6 tcp 1040 ------- 2 1.0 6.0 3 19
r 0.29016 1 3 tcp 1040 ------- 2 1.0 6.0 6 27
+ 0.29016 3 4 tcp 1040 ------- 2 1.0 6.0 6 27
r 0.29352 4 5 tcp 1040 ------- 1 0.0 5.0 4 17
+ 0.29352 5 4 ack 40 ------- 1 5.0 0.0 4 31
- 0.29352 5 4 ack 40 ------- 1 5.0 0.0 4 31
r 0.29432 2 3 tcp 1040 ------- 3 2.0 7.0 5 28
+ 0.29432 3 4 tcp 1040 ------- 3 2.0 7.0 5 28
- 0.29432 3 4 tcp 1040 ------- 3 2.0 7.0 4 23
r 0.29536 5 4 ack 40 ------- 1 5.0 0.0 3 30
+ 0.29536 4 3 ack 40 ------- 1 5.0 0.0 3 30
- 0.29536 4 3 ack 40 ------- 1 5.0 0.0 3 30
r 0.296 3 4 tcp 1040 ------- 2 1.0 6.0 4 20
+ 0.296 4 6 tcp 1040 ------- 2 1.0 6.0 4 20
- 0.296 4 6 tcp 1040 ------- 2 1.0 6.0 4 20
r 0.29848 2 3 tcp 1040 ------- 3 2.0 7.0 6 29
+ 0.29848 3 4 tcp 1040 ------- 3 2.0 7.0 6 29
r 0.30184 4 6 tcp 1040 ------- 2 1.0 6.0 3 19
+ 0.30184 6 4 ack 40 ------- 2 6.0 1.0 3 32
- 0.30184 6 4 ack 40 ------- 2 6.0 1.0 3 32
- 0.30264 3 4 tcp 1040 ------- 1 0.0 5.0 5 24
r 0.30368 5 4 ack 40 ------- 1 5.0 0.0 4 31
+ 0.30368 4 3 ack 40 ------- 1 5.0 0.0 4 31
- 0.30368 4 3 ack 40 ------- 1 5.0 0.0 4 31
r 0.30432 3 4 tcp 1040 ------- 3 2.0 7.0 3 22
+ 0.30432 4 7 tcp 1040 ------- 3 2.0 7.0 3 22
- 0.30432 4 7 tcp 1040 ------- 3 2.0 7.0 3 22
r 0.30568 4 3 ack 40 ------- 1 5.0 0.0 3 30
+ 0.30568 3 0 ack 40 ------- 1 5.0 0.0 3 30
- 0.30568 3 0 ack 40 ------- 1 5.0 0.0 3 30
r 0.31016 4 6 tcp 1040 ------- 2 1.0 6.0 4 20
+ 0.31016 6 4 ack 40 ------- 2 6.0 1.0 4 33
- 0.31016 6 4 ack 40 ------- 2 6.0 1.0 4 33
- 0.31096 3 4 tcp 1040 ------- 1 0.0 5.0 6 25
r 0.312 6 4 ack 40 ------- 2 6.0 1.0 3 32
+ 0.312 4 3 ack 40 ------- 2 6.0 1.0 3 32
- 0.312 4 3 ack 40 ------- 2 6.0 1.0 3 32
r 0.31264 3 4 tcp 1040 ------- 3 2.0 7.0 4 23
+ 0.31264 4 7 tcp 1040 ------- 3 2.0 7.0 4 23
- 0.31264 4 7 tcp 1040 ------- 3 2.0 7.0 4 23
r 0.314 4 3 ack 40 ------- 1 5.0 0.0 4 31
+ 0.314 3 0 ack 40 ------- 1 5.0 0.0 4 31
- 0.314 3 0 ack 40 ------- 1 5.0 0.0 4 31
r 0.31584 3 0 ack 40 ------- 1 5.0 0.0 3 30
+ 0.31584 0 3 tcp 1040 ------- 1 0.0 5.0 7 34
- 0.31584 0 3 tcp 1040 ------- 1 0.0 5.0 7 34
+ 0.31584 0 3 tcp 1040 ------- 1 0.0 5.0 8 35
r 0.31848 4 7 tcp 1040 ------- 3 2.0 7.0 3 22
+ 0.31848 7 4 ack 40 ------- 3 7.0 2.0 3 36
- 0.31848 7 4 ack 40 ------- 3 7.0 2.0 3 36
- 0.31928 3 4 tcp 1040 ------- 2 1.0 6.0 5 26
- 0.32 0 3 tcp 1040 ------- 1 0.0 5.0 8 35
r 0.32032 6 4 ack 40 ------- 2 6.0 1.0 4 33
+ 0.32032 4 3 ack 40 ------- 2 6.0 1.0 4 33
- 0.32032 4 3 ack 40 ------- 2 6.0 1.0 4 33
r 0.32096 3 4 tcp 1040 ------- 1 0.0 5.0 5 24
+ 0.32096 4 5 tcp 1040 ------- 1 0.0 5.0 5 24
- 0.32096 4 5 tcp 1040 ------- 1 0.0 5.0 5 24
r 0.32232 4 3 ack 40 ------- 2 6.0 1.0 3 32
+ 0.32232 3 1 ack 40 ------- 2 6.0 1.0 3 32
- 0.32232 3 1 ack 40 ------- 2 6.0 1.0 3 32
r 0.32416 3 0 ack 40 ------- 1 5.0 0.0 4 31
+ 0.32416 0 3 tcp 1040 ------- 1 0.0 5.0 9 37
+ 0.32416 0 3 tcp 1040 ------- 1 0.0 5.0 10 38
- 0.32416 0 3 tcp 1040 ------- 1 0.0 5.0 9 37
r 0.3268 4 7 tcp 1040 ------- 3 2.0 7.0 4 23
+ 0.3268 7 4 ack 40 ------- 3 7.0 2.0 4 39
- 0.3268 7 4 ack 40 ------- 3 7.0 2.0 4 39
- 0.3276 3 4 tcp 1040 ------- 2 1.0 6.0 6 27
- 0.32832 0 3 tcp 1040 ------- 1 0.0 5.0 10 38
r 0.32864 7 4 ack 40 ------- 3 7.0 2.0 3 36
+ 0.32864 4 3 ack 40 ------- 3 7.0 2.0 3 36
- 0.32864 4 3 ack 40 ------- 3 7.0 2.0 3 36
r 0.32928 3 4 tcp 1040 ------- 1 0.0 5.0 6 25
+ 0.32928 4 5 tcp 1040 ------- 1 0.0 5.0 6 25
- 0.32928 4 5 tcp 1040 ------- 1 0.0 5.0 6 25
r 0.33 0 3 tcp 1040 ------- 1 0.0 5.0 7 34
+ 0.33 3 4 tcp 1040 ------- 1 0.0 5.0 7 34
r 0.33064 4 3 ack 40 ------- 2 6.0 1.0 4 33
+ 0.33064 3 1 ack 40 ------- 2 6.0 1.0 4 33
- 0.33064 3 1 ack 40 ------- 2 6.0 1.0 4 33
r 0.33248 3 1 ack 40 ------- 2 6.0 1.0 3 32
+ 0.33248 1 3 tcp 1040 ------- 2 1.0 6.0 7 40
- 0.33248 1 3 tcp 1040 ------- 2 1.0 6.0 7 40
+ 0.33248 1 3 tcp 1040 ------- 2 1.0 6.0 8 41
r 0.33416 0 3 tcp 1040 ------- 1 0.0 5.0 8 35
+ 0.33416 3 4 tcp 1040 ------- 1 0.0 5.0 8 35
r 0.33512 4 5 tcp 1040 ------- 1 0.0 5.0 5 24
+ 0.33512 5 4 ack 40 ------- 1 5.0 0.0 5 42
- 0.33512 5 4 ack 40 ------- 1 5.0 0.0 5 42
- 0.33592 3 4 tcp 1040 ------- 3 2.0 7.0 5 28
- 0.33664 1 3 tcp 1040 ------- 2 1.0 6.0 8 41
r 0.33696 7 4 ack 40 ------- 3 7.0 2.0 4 39
+ 0.33696 4 3 ack 40 ------- 3 7.0 2.0 4 39
- 0.33696 4 3 ack 40 ------- 3 7.0 2.0 4 39
r 0.3376 3 4 tcp 1040 ------- 2 1.0 6.0 5 26
+ 0.3376 4 6 tcp 1040 ------- 2 1.0 6.0 5 26
- 0.3376 4 6 tcp 1040 ------- 2 1.0 6.0 5 26
r 0.33832 0 3 tcp 1040 ------- 1 0.0 5.0 9 37
+ 0.33832 3 4 tcp 1040 ------- 1 0.0 5.0 9 37
r 0.33896 4 3 ack 40 ------- 3 7.0 2.0 3 36
+ 0.33896 3 2 ack 40 ------- 3 7.0 2.0 3 36
- 0.33896 3 2 ack 40 ------- 3 7.0 2.0 3 36
r 0.3408 3 1 ack 40 ------- 2 6.0 1.0 4 33
+ 0.3408 1 3 tcp 1040 ------- 2 1.0 6.0 9 43
+ 0.3408 1 3 tcp 1040 ------- 2 1.0 6.0 10 44
- 0.3408 1 3 tcp 1040 ------- 2 1.0 6.0 9 43
r 0.34248 0 3 tcp 1040 ------- 1 0.0 5.0 10 38
+ 0.34248 3 4 tcp 1040 ------- 1 0.0 5.0 10 38
r 0.34344 4 5 tcp 1040 ------- 1 0.0 5.0 6 25
+ 0.34344 5 4 ack 40 ------- 1 5.0 0.0 6 45
- 0.34344 5 4 ack 40 ------- 1 5.0 0.0 6 45
- 0.34424 3 4 tcp 1040 ------- 3 2.0 7.0 6 29
- 0.34496 1 3 tcp 1040 ------- 2 1.0 6.0 10 44
r 0.34528 5 4 ack 40 ------- 1 5.0 0.0 5 42
+ 0.34528 4 3 ack 40 ------- 1 5.0 0.0 5 42
- 0.34528 4 3 ack 40 ------- 1 5.0 0.0 5 42
r 0.34592 3 4 tcp 1040 ------- 2 1.0 6.0 6 27
+ 0.34592 4 6 tcp 1040 ------- 2 1.0 6.0 6 27
- 0.34592 4 6 tcp 1040 ------- 2 1.0 6.0 6 27
r 0.34664 1 3 tcp 1040 ------- 2 1.0 6.0 7 40
+ 0.34664 3 4 tcp 1040 ------- 2 1.0 6.0 7 40
r 0.34728 4 3 ack 40 ------- 3 7.0 2.0 4 39
+ 0.34728 3 2 ack 40 ------- 3 7.0 2.0 4 39
- 0.34728 3 2 ack 40 ------- 3 7.0 2.0 4 39
r 0.34912 3 2 ack 40 ------- 3 7.0 2.0 3 36
+ 0.34912 2 3 tcp 1040 ------- 3 2.0 7.0 7 46
- 0.34912 2 3 tcp 1040 ------- 3 2.0 7.0 7 46
+ 0.34912 2 3 tcp 1040 ------- 3 2.0 7.0 8 47
r 0.3508 1 3 tcp 1040 ------- 2 1.0 6.0 8 41
+ 0.3508 3 4 tcp 1040 ------- 2 1.0 6.0 8 41
r 0.35176 4 6 tcp 1040 ------- 2 1.0 6.0 5 26
+ 0.35176 6 4 ack 40 ------- 2 6.0 1.0 5 48
- 0.35176 6 4 ack 40 ------- 2 6.0 1.0 5 48
- 0.35256 3 4 tcp 1040 ------- 1 0.0 5.0 7 34
- 0.35328 2 3 tcp 1040 ------- 3 2.0 7.0 8 47
r 0.3536 5 4 ack 40 ------- 1 5.0 0.0 6 45
+ 0.3536 4 3 ack 40 ------- 1 5.0 0.0 6 45
- 0.3536 4 3 ack 40 ------- 1 5.0 0.0 6 45
r 0.35424 3 4 tcp 1040 ------- 3 2.0 7.0 5 28
+ 0.35424 4 7 tcp 1040 ------- 3 2.0 7.0 5 28
- 0.35424 4 7 tcp 1040 ------- 3 2.0 7.0 5 28
r 0.35496 1 3 tcp 1040 ------- 2 1.0 6.0 9 43
+ 0.35496 3 4 tcp 1040 ------- 2 1.0 6.0 9 43
r 0.3556 4 3 ack 40 ------- 1 5.0 0.0 5 42
+ 0.3556 3 0 ack 40 ------- 1 5.0 0.0 5 42
- 0.3556 3 0 ack 40 ------- 1 5.0 0.0 5 42
r 0.35744 3 2 ack 40 ------- 3 7.0 2.0 4 39
+ 0.35744 2 3 tcp 1040 ------- 3 2.0 7.0 9 49
+ 0.35744 2 3 tcp 1040 ------- 3 2.0 7.0 10 50
- 0.35744 2 3 tcp 1040 ------- 3 2.0 7.0 9 49
r 0.35912 1 3 tcp 1040 ------- 2 1.0 6.0 10 44
+ 0.35912 3 4 tcp 1040 ------- 2 1.0 6.0 10 44
r 0.36008 4 6 tcp 1040 ------- 2 1.0 6.0 6 27
+ 0.36008 6 4 ack 40 ------- 2 6.0 1.0 6 51
- 0.36008 6 4 ack 40 ------- 2 6.0 1.0 6 51
- 0.36088 3 4 tcp 1040 ------- 1 0.0 5.0 8 35
- 0.3616 2 3 tcp 1040 ------- 3 2.0 7.0 10 50
r 0.36192 6 4 ack 40 ------- 2 6.0 1.0 5 48
+ 0.36192 4 3 ack 40 ------- 2 6.0 1.0 5 48
- 0.36192 4 3 ack 40 ------- 2 6.0 1.0 5 48
r 0.36256 3 4 tcp 1040 ------- 3 2.0 7.0 6 29
+ 0.36256 4 7 tcp 1040 ------- 3 2.0 7.0 6 29
- 0.36256 4 7 tcp 1040 ------- 3 2.0 7.0 6 29
r 0.36328 2 3 tcp 1040 ------- 3 2.0 7.0 7 46
+ 0.36328 3 4 tcp 1040 ------- 3 2.0 7.0 7 46
r 0.36392 4 3 ack 40 ------- 1 5.0 0.0 6 45
+ 0.36392 3 0 ack 40 ------- 1 5.0 0.0 6 45
- 0.36392 3 0 ack 40 ------- 1 5.0 0.0 6 45
r 0.36576 3 0 ack 40 ------- 1 5.0 0.0 5 42
+ 0.36576 0 3 tcp 1040 ------- 1 0.0 5.0 11 52
- 0.36576 0 3 tcp 1040 ------- 1 0.0 5.0 11 52
+ 0.36576 0 3 tcp 1040 ------- 1 0.0 5.0 12 53
r 0.36744 2 3 tcp 1040 ------- 3 2.0 7.0 8 47
+ 0.36744 3 4 tcp 1040 ------- 3 2.0 7.0 8 47
r 0.3684 4 7 tcp 1040 ------- 3 2.0 7.0 5 28
+ 0.3684 7 4 ack 40 ------- 3 7.0 2.0 5 54
- 0.3684 7 4 ack 40 ------- 3 7.0 2.0 5 54
- 0.3692 3 4 tcp 1040 ------- 1 0.0 5.0 9 37
- 0.36992 0 3 tcp 1040 ------- 1 0.0 5.0 12 53
r 0.37024 6 4 ack 40 ------- 2 6.0 1.0 6 51
+ 0.37024 4 3 ack 40 ------- 2 6.0 1.0 6 51
- 0.37024 4 3 ack 40 ------- 2 6.0 1.0 6 51
r 0.37088 3 4 tcp 1040 ------- 1 0.0 5.0 7 34
+ 0.37088 4 5 tcp 1040 ------- 1 0.0 5.0 7 34
- 0.37088 4 5 tcp 1040 ------- 1 0.0 5.0 7 34
r 0.3716 2 3 tcp 1040 ------- 3 2.0 7.0 9 49
+ 0.3716 3 4 tcp 1040 ------- 3 2.0 7.0 9 49
r 0.37224 4 3 ack 40 ------- 2 6.0 1.0 5 48
+ 0.37224 3 1 ack 40 ------- 2 6.0 1.0 5 48
- 0.37224 3 1 ack 40 ------- 2 6.0 1.0 5 48
r 0.37408 3 0 ack 40 ------- 1 5.0 0.0 6 45
+ 0.37408 0 3 tcp 1040 ------- 1 0.0 5.0 13 55
+ 0.37408 0 3 tcp 1040 ------- 1 0.0 5.0 14 56
- 0.37408 0 3 tcp 1040 ------- 1 0.0 5.0 13 55
r 0.37576 2 3 tcp 1040 ------- 3 2.0 7.0 10 50
+ 0.37576 3 4 tcp 1040 ------- 3 2.0 7.0 10 50
r 0.37672 4 7 tcp 1040 ------- 3 2.0 7.0 6 29
+ 0.37672 7 4 ack 40 ------- 3 7.0 2.0 6 57
- 0.37672 7 4 ack 40 ------- 3 7.0 2.0 6 57
- 0.37752 3 4 tcp 1040 ------- 1 0.0 5.0 10 38
- 0.37824 0 3 tcp 1040 ------- 1 0.0 5.0 14 56
r 0.37856 7 4 ack 40 ------- 3 7.0 2.0 5 54
+ 0.37856 4 3 ack 40 ------- 3 7.0 2.0 5 54
- 0.37856 4 3 ack 40 ------- 3 7.0 2.0 5 54
r 0.3792 3 4 tcp 1040 ------- 1 0.0 5.0 8 35
+ 0.3792 4 5 tcp 1040 ------- 1 0.0 5.0 8 35
- 0.3792 4 5 tcp 1040 ------- 1 0.0 5.0 8 35
r 0.37992 0 3 tcp 1040 ------- 1 0.0 5.0 11 52
+ 0.37992 3 4 tcp 1040 ------- 1 0.0 5.0 11 52
r 0.38056 4 3 ack 40 ------- 2 6.0 1.0 6 51
+ 0.38056 3 1 ack 40 ------- 2 6.0 1.0 6 51
- 0.38056 3 1 ack 40 ------- 2 6.0 1.0 6 51
r 0.3824 3 1 ack 40 ------- 2 6.0 1.0 5 48
+ 0.3824 1 3 tcp 1040 ------- 2 1.0 6.0 11 58
- 0.3824 1 3 tcp 1040 ------- 2 1.0 6.0 11 58
+ 0.3824 1 3 tcp 1040 ------- 2 1.0 6.0 12 59
r 0.38408 0 3 tcp 1040 ------- 1 0.0 5.0 12 53
+ 0.38408 3 4 tcp 1040 ------- 1 0.0 5.0 12 53
r 0.38504 4 5 tcp 1040 ------- 1 0.0 5.0 7 34
+ 0.38504 5 4 ack 40 ------- 1 5.0 0.0 7 60
- 0.38504 5 4 ack 40 ------- 1 5.0 0.0 7 60
- 0.38584 3 4 tcp 1040 ------- 2 1.0 6.0 7 40
- 0.38656 1 3 tcp 1040 ------- 2 1.0 6.0 12 59
r 0.38688 7 4 ack 40 ------- 3 7.0 2.0 6 57
+ 0.38688 4 3 ack 40 ------- 3 7.0 2.0 6 57
- 0.38688 4 3 ack 40 ------- 3 7.0 2.0 6 57
r 0.38752 3 4 tcp 1040 ------- 1 0.0 5.0 9 37
+ 0.38752 4 5 tcp 1040 ------- 1 0.0 5.0 9 37
- 0.38752 4 5 tcp 1040 ------- 1 0.0 5.0 9 37
r 0.38824 0 3 tcp 1040 ------- 1 0.0 5.0 13 55
+ 0.38824 3 4 tcp 1040 ------- 1 0.0 5.0 13 55
r 0.38888 4 3 ack 40 ------- 3 7.0 2.0 5 54
+ 0.38888 3 2 ack 40 ------- 3 7.0 2.0 5 54
- 0.38888 3 2 ack 40 ------- 3 7.0 2.0 5 54
r 0.39072 3 1 ack 40 ------- 2 6.0 1.0 6 51
+ 0.39072 1 3 tcp 1040 ------- 2 1.0 6.0 13 61
+ 0.39072 1 3 tcp 1040 ------- 2 1.0 6.0 14 62
- 0.39072 1 3 tcp 1040 ------- 2 1.0 6.0 13 61
r 0.3924 0 3 tcp 1040 ------- 1 0.0 5.0 14 56
+ 0.3924 3 4 tcp 1040 ------- 1 0.0 5.0 14 56
r 0.39336 4 5 tcp 1040 ------- 1 0.0 5.0 8 35
+ 0.39336 5 4 ack 40 ------- 1 5.0 0.0 8 63
- 0.39336 5 4 ack 40 ------- 1 5.0 0.0 8 63
- 0.39416 3 4 tcp 1040 ------- 2 1.0 6.0 8 41
- 0.39488 1 3 tcp 1040 ------- 2 1.0 6.0 14 62
r 0.3952 5 4 ack 40 ------- 1 5.0 0.0 7 60
+ 0.3952 4 3 ack 40 ------- 1 5.0 0.0 7 60
- 0.3952 4 3 ack 40 ------- 1 5.0 0.0 7 60
r 0.39584 3 4 tcp 1040 ------- 1 0.0 5.0 10 38
+ 0.39584 4 5 tcp 1040 ------- 1 0.0 5.0 10 38
- 0.39584 4 5 tcp 1040 ------- 1 0.0 5.0 10 38
r 0.39656 1 3 tcp 1040 ------- 2 1.0 6.0 11 58
+ 0.39656 3 4 tcp 1040 ------- 2 1.0 6.0 11 58
r 0.3972 4 3 ack 40 ------- 3 7.0 2.0 6 57
+ 0.3972 3 2 ack 40 ------- 3 7.0 2.0 6 57
- 0.3972 3 2 ack 40 ------- 3 7.0 2.0 6 57
r 0.39904 3 2 ack 40 ------- 3 7.0 2.0 5 54
+ 0.39904 2 3 tcp 1040 ------- 3 2.0 7.0 11 64
- 0.39904 2 3 tcp 1040 ------- 3 2.0 7.0 11 64
+ 0.39904 2 3 tcp 1040 ------- 3 2.0 7.0 12 65
r 0.40072 1 3 tcp 1040 ------- 2 1.0 6.0 12 59
+ 0.40072 3 4 tcp 1040 ------- 2 1.0 6.0 12 59
r 0.40168 4 5 tcp 1040 ------- 1 0.0 5.0 9 37
+ 0.40168 5 4 ack 40 ------- 1 5.0 0.0 9 66
- 0.40168 5 4 ack 40 ------- 1 5.0 0.0 9 66
- 0.40248 3 4 tcp 1040 ------- 2 1.0 6.0 9 43
- 0.4032 2 3 tcp 1040 ------- 3 2.0 7.0 12 65
r 0.40352 5 4 ack 40 ------- 1 5.0 0.0 8 63
+ 0.40352 4 3 ack 40 ------- 1 5.0 0.0 8 63
- 0.40352 4 3 ack 40 ------- 1 5.0 0.0 8 63
r 0.40416 3 4 tcp 1040 ------- 2 1.0 6.0 7 40
+ 0.40416 4 6 tcp 1040 ------- 2 1.0 6.0 7 40
- 0.40416 4 6 tcp 1040 ------- 2 1.0 6.0 7 40
r 0.40488 1 3 tcp 1040 ------- 2 1.0 6.0 13 61
+ 0.40488 3 4 tcp 1040 ------- 2 1.0 6.0 13 61
r 0.40552 4 3 ack 40 ------- 1 5.0 0.0 7 60
+ 0.40552 3 0 ack 40 ------- 1 5.0 0.0 7 60
- 0.40552 3 0 ack 40 ------- 1 5.0 0.0 7 60
r 0.40736 3 2 ack 40 ------- 3 7.0 2.0 6 57
+ 0.40736 2 3 tcp 1040 ------- 3 2.0 7.0 13 67
+ 0.40736 2 3 tcp 1040 ------- 3 2.0 7.0 14 68
- 0.40736 2 3 tcp 1040 ------- 3 2.0 7.0 13 67
r 0.40904 1 3 tcp 1040 ------- 2 1.0 6.0 14 62
+ 0.40904 3 4 tcp 1040 ------- 2 1.0 6.0 14 62
r 0.41 4 5 tcp 1040 ------- 1 0.0 5.0 10 38
+ 0.41 5 4 ack 40 ------- 1 5.0 0.0 10 69
- 0.41 5 4 ack 40 ------- 1 5.0 0.0 10 69
- 0.4108 3 4 tcp 1040 ------- 2 1.0 6.0 10 44
- 0.41152 2 3 tcp 1040 ------- 3 2.0 7.0 14 68
r 0.41184 5 4 ack 40 ------- 1 5.0 0.0 9 66
+ 0.41184 4 3 ack 40 ------- 1 5.0 0.0 9 66
- 0.41184 4 3 ack 40 ------- 1 5.0 0.0 9 66
r 0.41248 3 4 tcp 1040 ------- 2 1.0 6.0 8 41
+ 0.41248 4 6 tcp 1040 ------- 2 1.0 6.0 8 41
- 0.41248 4 6 tcp 1040 ------- 2 1.0 6.0 8 41
r 0.4132 2 3 tcp 1040 ------- 3 2.0 7.0 11 64
+ 0.4132 3 4 tcp 1040 ------- 3 2.0 7.0 11 64
r 0.41384 4 3 ack 40 ------- 1 5.0 0.0 8 63
+ 0.41384 3 0 ack 40 ------- 1 5.0 0.0 8 63
- 0.41384 3 0 ack 40 ------- 1 5.0 0.0 8 63
r 0.41568 3 0 ack 40 ------- 1 5.0 0.0 7 60
+ 0.41568 0 3 tcp 1040 ------- 1 0.0 5.0 15 70
- 0.41568 0 3 tcp 1040 ------- 1 0.0 5.0 15 70
+ 0.41568 0 3 tcp 1040 ------- 1 0.0 5.0 16 71
r 0.41736 2 3 tcp 1040 ------- 3 2.0 7.0 12 65
+ 0.41736 3 4 tcp 1040 ------- 3 2.0 7.0 12 65
r 0.41832 4 6 tcp 1040 ------- 2 1.0 6.0 7 40
+ 0.41832 6 4 ack 40 ------- 2 6.0 1.0 7 72
- 0.41832 6 4 ack 40 ------- 2 6.0 1.0 7 72
- 0.41912 3 4 tcp 1040 ------- 3 2.0 7.0 7 46
- 0.41984 0 3 tcp 1040 ------- 1 0.0 5.0 16 71
r 0.42016 5 4 ack 40 ------- 1 5.0 0.0 10 69
+ 0.42016 4 3 ack 40 ------- 1 5.0 0.0 10 69
- 0.42016 4 3 ack 40 ------- 1 5.0 0.0 10 69
r 0.4208 3 4 tcp 1040 ------- 2 1.0 6.0 9 43
+ 0.4208 4 6 tcp 1040 ------- 2 1.0 6.0 9 43
- 0.4208 4 6 tcp 1040 ------- 2 1.0 6.0 9 43
r 0.42152 2 3 tcp 1040 ------- 3 2.0 7.0 13 67
+ 0.42152 3 4 tcp 1040 ------- 3 2.0 7.0 13 67
r 0.42216 4 3 ack 40 ------- 1 5.0 0.0 9 66
+ 0.42216 3 0 ack 40 ------- 1 5.0 0.0 9 66
- 0.42216 3 0 ack 40 ------- 1 5.0 0.0 9 66
r 0.424 3 0 ack 40 ------- 1 5.0 0.0 8 63
+ 0.424 0 3 tcp 1040 ------- 1 0.0 5.0 17 73
+ 0.424 0 3 tcp 1040 ------- 1 0.0 5.0 18 74
- 0.424 0 3 tcp 1040 ------- 1 0.0 5.0 17 73
r 0.42568 2 3 tcp 1040 ------- 3 2.0 7.0 14 68
+ 0.42568 3 4 tcp 1040 ------- 3 2.0 7.0 14 68
r 0.42664 4 6 tcp 1040 ------- 2 1.0 6.0 8 41
+ 0.42664 6 4 ack 40 ------- 2 6.0 1.0 8 75
- 0.42664 6 4 ack 40 ------- 2 6.0 1.0 8 75
- 0.42744 3 4 tcp 1040 ------- 3 2.0 7.0 8 47
- 0.42816 0 3 tcp 1040 ------- 1 0.0 5.0 18 74
r 0.42848 6 4 ack 40 ------- 2 6.0 1.0 7 72
+ 0.42848 4 3 ack 40 ------- 2 6.0 1.0 7 72
- 0.42848 4 3 ack 40 ------- 2 6.0 1.0 7 72
r 0.42912 3 4 tcp 1040 ------- 2 1.0 6.0 10 44
+ 0.42912 4 6 tcp 1040 ------- 2 1.0 6.0 10 44
- 0.42912 4 6 tcp 1040 ------- 2 1.0 6.0 10 44
r 0.42984 0 3 tcp 1040 ------- 1 0.0 5.0 15 70
+ 0.42984 3 4 tcp 1040 ------- 1 0.0 5.0 15 70
r 0.43048 4 3 ack 40 ------- 1 5.0 0.0 10 69
+ 0.43048 3 0 ack 40 ------- 1 5.0 0.0 10 69
- 0.43048 3 0 ack 40 ------- 1 5.0 0.0 10 69
r 0.43232 3 0 ack 40 ------- 1 5.0 0.0 9 66
+ 0.43232 0 3 tcp 1040 ------- 1 0.0 5.0 19 76
+ 0.43232 0 3 tcp 1040 ------- 1 0.0 5.0 20 77
- 0.43232 0 3 tcp 1040 ------- 1 0.0 5.0 19 76
r 0.434 0 3 tcp 1040 ------- 1 0.0 5.0 16 71
+ 0.434 3 4 tcp 1040 ------- 1 0.0 5.0 16 71
r 0.43496 4 6 tcp 1040 ------- 2 1.0 6.0 9 43
+ 0.43496 6 4 ack 40 ------- 2 6.0 1.0 9 78
- 0.43496 6 4 ack 40 ------- 2 6.0 1.0 9 78
- 0.43576 3 4 tcp 1040 ------- 3 2.0 7.0 9 49
- 0.43648 0 3 tcp 1040 ------- 1 0.0 5.0 20 77
r 0.4368 6 4 ack 40 ------- 2 6.0 1.0 8 75
+ 0.4368 4 3 ack 40 ------- 2 6.0 1.0 8 75
- 0.4368 4 3 ack 40 ------- 2 6.0 1.0 8 75
r 0.43744 3 4 tcp 1040 ------- 3 2.0 7.0 7 46
+ 0.43744 4 7 tcp 1040 ------- 3 2.0 7.0 7 46
- 0.43744 4 7 tcp 1040 ------- 3 2.0 7.0 7 46
r 0.43816 0 3 tcp 1040 ------- 1 0.0 5.0 17 73
+ 0.43816 3 4 tcp 1040 ------- 1 0.0 5.0 17 73
r 0.4388 4 3 ack 40 ------- 2 6.0 1.0 7 72
+ 0.4388 3 1 ack 40 ------- 2 6.0 1.0 7 72
- 0.4388 3 1 ack 40 ------- 2 6.0 1.0 7 72
r 0.44064 3 0 ack 40 ------- 1 5.0 0.0 10 69
+ 0.44064 0 3 tcp 1040 ------- 1 0.0 5.0 21 79
+ 0.44064 0 3 tcp 1040 ------- 1 0.0 5.0 22 80
- 0.44064 0 3 tcp 1040 ------- 1 0.0 5.0 21 79
r 0.44232 0 3 tcp 1040 ------- 1 0.0 5.0 18 74
+ 0.44232 3 4 tcp 1040 ------- 1 0.0 5.0 18 74
r 0.44328 4 6 tcp 1040 ------- 2 1.0 6.0 10 44
+ 0.44328 6 4 ack 40 ------- 2 6.0 1.0 10 81
- 0.44328 6 4 ack 40 ------- 2 6.0 1.0 10 81
- 0.44408 3 4 tcp 1040 ------- 3 2.0 7.0 10 50
- 0.4448 0 3 tcp 1040 ------- 1 0.0 5.0 22 80
r 0.44512 6 4 ack 40 ------- 2 6.0 1.0 9 78
+ 0.44512 4 3 ack 40 ------- 2 6.0 1.0 9 78
- 0.44512 4 3 ack 40 ------- 2 6.0 1.0 9 78
r 0.44576 3 4 tcp 1040 ------- 3 2.0 7.0 8 47
+ 0.44576 4 7 tcp 1040 ------- 3 2.0 7.0 8 47
- 0.44576 4 7 tcp 1040 ------- 3 2.0 7.0 8 47
r 0.44648 0 3 tcp 1040 ------- 1 0.0 5.0 19 76
+ 0.44648 3 4 tcp 1040 ------- 1 0.0 5.0 19 76
r 0.44712 4 3 ack 40 ------- 2 6.0 1.0 8 75
+ 0.44712 3 1 ack 40 ------- 2 6.0 1.0 8 75
- 0.44712 3 1 ack 40 ------- 2 6.0 1.0 8 75
r 0.44896 3 1 ack 40 ------- 2 6.0 1.0 7 72
+ 0.44896 1 3 tcp 1040 ------- 2 1.0 6.0 15 82
- 0.44896 1 3 tcp 1040 ------- 2 1.0 6.0 15 82
+ 0.44896 1 3 tcp 1040 ------- 2 1.0 6.0 16 83
r 0.45064 0 3 tcp 1040 ------- 1 0.0 5.0 20 77
+ 0.45064 3 4 tcp 1040 ------- 1 0.0 5.0 20 77
r 0.4516 4 7 tcp 1040 ------- 3 2.0 7.0 7 46
+ 0.4516 7 4 ack 40 ------- 3 7.0 2.0 7 84
- 0.4516 7 4 ack 40 ------- 3 7.0 2.0 7 84
- 0.4524 3 4 tcp 1040 ------- 1 0.0 5.0 11 52
- 0.45312 1 3 tcp 1040 ------- 2 1.0 6.0 16 83
r 0.45344 6 4 ack 40 ------- 2 6.0 1.0 10 81
+ 0.45344 4 3 ack 40 ------- 2 6.0 1.0 10 81
- 0.45344 4 3 ack 40 ------- 2 6.0 1.0 10 81
r 0.45408 3 4 tcp 1040 ------- 3 2.0 7.0 9 49
+ 0.45408 4 7 tcp 1040 ------- 3 2.0 7.0 9 49
- 0.45408 4 7 tcp 1040 ------- 3 2.0 7.0 9 49
r 0.4548 0 3 tcp 1040 ------- 1 0.0 5.0 21 79
+ 0.4548 3 4 tcp 1040 ------- 1 0.0 5.0 21 79
r 0.45544 4 3 ack 40 ------- 2 6.0 1.0 9 78
+ 0.45544 3 1 ack 40 ------- 2 6.0 1.0 9 78
- 0.45544 3 1 ack 40 ------- 2 6.0 1.0 9 78
r 0.45728 3 1 ack 40 ------- 2 6.0 1.0 8 75
+ 0.45728 1 3 tcp 1040 ------- 2 1.0 6.0 17 85
+ 0.45728 1 3 tcp 1040 ------- 2 1.0 6.0 18 86
- 0.45728 1 3 tcp 1040 ------- 2 1.0 6.0 17 85
r 0.45896 0 3 tcp 1040 ------- 1 0.0 5.0 22 80
+ 0.45896 3 4 tcp 1040 ------- 1 0.0 5.0 22 80
r 0.45992 4 7 tcp 1040 ------- 3 2.0 7.0 8 47
+ 0.45992 7 4 ack 40 ------- 3 7.0 2.0 8 87
- 0.45992 7 4 ack 40 ------- 3 7.0 2.0 8 87
- 0.46072 3 4 tcp 1040 ------- 1 0.0 5.0 12 53
- 0.46144 1 3 tcp 1040 ------- 2 1.0 6.0 18 86
r 0.46176 7 4 ack 40 ------- 3 7.0 2.0 7 84
+ 0.46176 4 3 ack 40 ------- 3 7.0 2.0 7 84
- 0.46176 4 3 ack 40 ------- 3 7.0 2.0 7 84
r 0.4624 3 4 tcp 1040 ------- 3 2.0 7.0 10 50
+ 0.4624 4 7 tcp 1040 ------- 3 2.0 7.0 10 50
- 0.4624 4 7 tcp 1040 ------- 3 2.0 7.0 10 50
r 0.46312 1 3 tcp 1040 ------- 2 1.0 6.0 15 82
+ 0.46312 3 4 tcp 1040 ------- 2 1.0 6.0 15 82
r 0.46376 4 3 ack 40 ------- 2 6.0 1.0 10 81
+ 0.46376 3 1 ack 40 ------- 2 6.0 1.0 10 81
- 0.46376 3 1 ack 40 ------- 2 6.0 1.0 10 81
r 0.4656 3 1 ack 40 ------- 2 6.0 1.0 9 78
+ 0.4656 1 3 tcp 1040 ------- 2 1.0 6.0 19 88
+ 0.4656 1 3 tcp 1040 ------- 2 1.0 6.0 20 89
- 0.4656 1 3 tcp 1040 ------- 2 1.0 6.0 19 88
r 0.46728 1 3 tcp 1040 ------- 2 1.0 6.0 16 83
+ 0.46728 3 4 tcp 1040 ------- 2 1.0 6.0 16 83
r 0.46824 4 7 tcp 1040 ------- 3 2.0 7.0 9 49
+ 0.46824 7 4 ack 40 ------- 3 7.0 2.0 9 90
- 0.46824 7 4 ack 40 ------- 3 7.0 2.0 9 90
- 0.46904 3 4 tcp 1040 ------- 1 0.0 5.0 13 55
- 0.46976 1 3 tcp 1040 ------- 2 1.0 6.0 20 89
r 0.47008 7 4 ack 40 ------- 3 7.0 2.0 8 87
+ 0.47008 4 3 ack 40 ------- 3 7.0 2.0 8 87
- 0.47008 4 3 ack 40 ------- 3 7.0 2.0 8 87
r 0.47072 3 4 tcp 1040 ------- 1 0.0 5.0 11 52