+ 0.1 0 3 tcp 1000 ------- 1 0.0 5.0 0 0
- 0.1 0 3 tcp 1000 ------- 1 0.0 5.0 0 0
+ 0.1 1 3 tcp 1000 ------- 2 1.0 6.0 0 1
- 0.1 1 3 tcp 1000 ------- 2 1.0 6.0 0 1
+ 0.1 2 3 tcp 1000 ------- 3 2.0 7.0 0 2
- 0.1 2 3 tcp 1000 ------- 3 2.0 7.0 0 2
r 0.114 0 3 tcp 1000 ------- 1 0.0 5.0 0 0
+ 0.114 3 4 tcp 1000 ------- 1 0.0 5.0 0 0
- 0.114 3 4 tcp 1000 ------- 1 0.0 5.0 0 0
r 0.114 1 3 tcp 1000 ------- 2 1.0 6.0 0 1
+ 0.114 3 4 tcp 1000 ------- 2 1.0 6.0 0 1
r 0.114 2 3 tcp 1000 ------- 3 2.0 7.0 0 2
+ 0.114 3 4 tcp 1000 ------- 3 2.0 7.0 0 2
- 0.122 3 4 tcp 1000 ------- 2 1.0 6.0 0 1
- 0.13 3 4 tcp 1000 ------- 3 2.0 7.0 0 2
r 0.132 3 4 tcp 1000 ------- 1 0.0 5.0 0 0
+ 0.132 4 5 tcp 1000 ------- 1 0.0 5.0 0 0
- 0.132 4 5 tcp 1000 ------- 1 0.0 5.0 0 0
r 0.14 3 4 tcp 1000 ------- 2 1.0 6.0 0 1
+ 0.14 4 6 tcp 1000 ------- 2 1.0 6.0 0 1
- 0.14 4 6 tcp 1000 ------- 2 1.0 6.0 0 1
r 0.146 4 5 tcp 1000 ------- 1 0.0 5.0 0 0
+ 0.146 5 4 ack 40 ------- 1 5.0 0.0 0 3
- 0.146 5 4 ack 40 ------- 1 5.0 0.0 0 3
r 0.148 3 4 tcp 1000 ------- 3 2.0 7.0 0 2
+ 0.148 4 7 tcp 1000 ------- 3 2.0 7.0 0 2
- 0.148 4 7 tcp 1000 ------- 3 2.0 7.0 0 2
r 0.154 4 6 tcp 1000 ------- 2 1.0 6.0 0 1
+ 0.154 6 4 ack 40 ------- 2 6.0 1.0 0 4
- 0.154 6 4 ack 40 ------- 2 6.0 1.0 0 4
r 0.15616 5 4 ack 40 ------- 1 5.0 0.0 0 3
+ 0.15616 4 3 ack 40 ------- 1 5.0 0.0 0 3
- 0.15616 4 3 ack 40 ------- 1 5.0 0.0 0 3
r 0.162 4 7 tcp 1000 ------- 3 2.0 7.0 0 2
+ 0.162 7 4 ack 40 ------- 3 7.0 2.0 0 5
- 0.162 7 4 ack 40 ------- 3 7.0 2.0 0 5
r 0.16416 6 4 ack 40 ------- 2 6.0 1.0 0 4
+ 0.16416 4 3 ack 40 ------- 2 6.0 1.0 0 4
- 0.16416 4 3 ack 40 ------- 2 6.0 1.0 0 4
r 0.16648 4 3 ack 40 ------- 1 5.0 0.0 0 3
+ 0.16648 3 0 ack 40 ------- 1 5.0 0.0 0 3
- 0.16648 3 0 ack 40 ------- 1 5.0 0.0 0 3
r 0.17216 7 4 ack 40 ------- 3 7.0 2.0 0 5
+ 0.17216 4 3 ack 40 ------- 3 7.0 2.0 0 5
- 0.17216 4 3 ack 40 ------- 3 7.0 2.0 0 5
r 0.17448 4 3 ack 40 ------- 2 6.0 1.0 0 4
+ 0.17448 3 1 ack 40 ------- 2 6.0 1.0 0 4
- 0.17448 3 1 ack 40 ------- 2 6.0 1.0 0 4
r 0.17664 3 0 ack 40 ------- 1 5.0 0.0 0 3
+ 0.17664 0 3 tcp 1000 ------- 1 0.0 5.0 1 6
- 0.17664 0 3 tcp 1000 ------- 1 0.0 5.0 1 6
r 0.18248 4 3 ack 40 ------- 3 7.0 2.0 0 5
+ 0.18248 3 2 ack 40 ------- 3 7.0 2.0 0 5
- 0.18248 3 2 ack 40 ------- 3 7.0 2.0 0 5
r 0.18464 3 1 ack 40 ------- 2 6.0 1.0 0 4
+ 0.18464 1 3 tcp 1000 ------- 2 1.0 6.0 1 7
- 0.18464 1 3 tcp 1000 ------- 2 1.0 6.0 1 7
r 0.19064 0 3 tcp 1000 ------- 1 0.0 5.0 1 6
+ 0.19064 3 4 tcp 1000 ------- 1 0.0 5.0 1 6
- 0.19064 3 4 tcp 1000 ------- 1 0.0 5.0 1 6
r 0.19264 3 2 ack 40 ------- 3 7.0 2.0 0 5
+ 0.19264 2 3 tcp 1000 ------- 3 2.0 7.0 1 8
- 0.19264 2 3 tcp 1000 ------- 3 2.0 7.0 1 8
r 0.19864 1 3 tcp 1000 ------- 2 1.0 6.0 1 7
+ 0.19864 3 4 tcp 1000 ------- 2 1.0 6.0 1 7
- 0.19864 3 4 tcp 1000 ------- 2 1.0 6.0 1 7
r 0.20664 2 3 tcp 1000 ------- 3 2.0 7.0 1 8
+ 0.20664 3 4 tcp 1000 ------- 3 2.0 7.0 1 8
- 0.20664 3 4 tcp 1000 ------- 3 2.0 7.0 1 8
r 0.20864 3 4 tcp 1000 ------- 1 0.0 5.0 1 6
+ 0.20864 4 5 tcp 1000 ------- 1 0.0 5.0 1 6
- 0.20864 4 5 tcp 1000 ------- 1 0.0 5.0 1 6
r 0.21664 3 4 tcp 1000 ------- 2 1.0 6.0 1 7
+ 0.21664 4 6 tcp 1000 ------- 2 1.0 6.0 1 7
- 0.21664 4 6 tcp 1000 ------- 2 1.0 6.0 1 7
r 0.22264 4 5 tcp 1000 ------- 1 0.0 5.0 1 6
+ 0.22264 5 4 ack 40 ------- 1 5.0 0.0 1 9
- 0.22264 5 4 ack 40 ------- 1 5.0 0.0 1 9
r 0.22464 3 4 tcp 1000 ------- 3 2.0 7.0 1 8
+ 0.22464 4 7 tcp 1000 ------- 3 2.0 7.0 1 8
- 0.22464 4 7 tcp 1000 ------- 3 2.0 7.0 1 8
r 0.23064 4 6 tcp 1000 ------- 2 1.0 6.0 1 7
+ 0.23064 6 4 ack 40 ------- 2 6.0 1.0 1 10
- 0.23064 6 4 ack 40 ------- 2 6.0 1.0 1 10
r 0.2328 5 4 ack 40 ------- 1 5.0 0.0 1 9
+ 0.2328 4 3 ack 40 ------- 1 5.0 0.0 1 9
- 0.2328 4 3 ack 40 ------- 1 5.0 0.0 1 9
r 0.23864 4 7 tcp 1000 ------- 3 2.0 7.0 1 8
+ 0.23864 7 4 ack 40 ------- 3 7.0 2.0 1 11
- 0.23864 7 4 ack 40 ------- 3 7.0 2.0 1 11
r 0.2408 6 4 ack 40 ------- 2 6.0 1.0 1 10
+ 0.2408 4 3 ack 40 ------- 2 6.0 1.0 1 10
- 0.2408 4 3 ack 40 ------- 2 6.0 1.0 1 10
r 0.24312 4 3 ack 40 ------- 1 5.0 0.0 1 9
+ 0.24312 3 0 ack 40 ------- 1 5.0 0.0 1 9
- 0.24312 3 0 ack 40 ------- 1 5.0 0.0 1 9
r 0.2488 7 4 ack 40 ------- 3 7.0 2.0 1 11
+ 0.2488 4 3 ack 40 ------- 3 7.0 2.0 1 11
- 0.2488 4 3 ack 40 ------- 3 7.0 2.0 1 11
r 0.25112 4 3 ack 40 ------- 2 6.0 1.0 1 10
+ 0.25112 3 1 ack 40 ------- 2 6.0 1.0 1 10
- 0.25112 3 1 ack 40 ------- 2 6.0 1.0 1 10
r 0.25328 3 0 ack 40 ------- 1 5.0 0.0 1 9
+ 0.25328 0 3 tcp 1000 ------- 1 0.0 5.0 2 12
- 0.25328 0 3 tcp 1000 ------- 1 0.0 5.0 2 12
+ 0.25328 0 3 tcp 1000 ------- 1 0.0 5.0 3 13
+ 0.25328 0 3 tcp 1000 ------- 1 0.0 5.0 4 14
- 0.25728 0 3 tcp 1000 ------- 1 0.0 5.0 3 13
r 0.25912 4 3 ack 40 ------- 3 7.0 2.0 1 11
+ 0.25912 3 2 ack 40 ------- 3 7.0 2.0 1 11
- 0.25912 3 2 ack 40 ------- 3 7.0 2.0 1 11
r 0.26128 3 1 ack 40 ------- 2 6.0 1.0 1 10
+ 0.26128 1 3 tcp 1000 ------- 2 1.0 6.0 2 15
- 0.26128 1 3 tcp 1000 ------- 2 1.0 6.0 2 15
+ 0.26128 1 3 tcp 1000 ------- 2 1.0 6.0 3 16
+ 0.26128 1 3 tcp 1000 ------- 2 1.0 6.0 4 17
- 0.26128 0 3 tcp 1000 ------- 1 0.0 5.0 4 14
- 0.26528 1 3 tcp 1000 ------- 2 1.0 6.0 3 16
r 0.26728 0 3 tcp 1000 ------- 1 0.0 5.0 2 12
+ 0.26728 3 4 tcp 1000 ------- 1 0.0 5.0 2 12
- 0.26728 3 4 tcp 1000 ------- 1 0.0 5.0 2 12
r 0.26928 3 2 ack 40 ------- 3 7.0 2.0 1 11
+ 0.26928 2 3 tcp 1000 ------- 3 2.0 7.0 2 18
- 0.26928 2 3 tcp 1000 ------- 3 2.0 7.0 2 18
+ 0.26928 2 3 tcp 1000 ------- 3 2.0 7.0 3 19
+ 0.26928 2 3 tcp 1000 ------- 3 2.0 7.0 4 20
- 0.26928 1 3 tcp 1000 ------- 2 1.0 6.0 4 17
r 0.27128 0 3 tcp 1000 ------- 1 0.0 5.0 3 13
+ 0.27128 3 4 tcp 1000 ------- 1 0.0 5.0 3 13
- 0.27328 2 3 tcp 1000 ------- 3 2.0 7.0 3 19
r 0.27528 1 3 tcp 1000 ------- 2 1.0 6.0 2 15
+ 0.27528 3 4 tcp 1000 ------- 2 1.0 6.0 2 15
r 0.27528 0 3 tcp 1000 ------- 1 0.0 5.0 4 14
+ 0.27528 3 4 tcp 1000 ------- 1 0.0 5.0 4 14
- 0.27528 3 4 tcp 1000 ------- 1 0.0 5.0 3 13
- 0.27728 2 3 tcp 1000 ------- 3 2.0 7.0 4 20
r 0.27928 1 3 tcp 1000 ------- 2 1.0 6.0 3 16
+ 0.27928 3 4 tcp 1000 ------- 2 1.0 6.0 3 16
r 0.28328 2 3 tcp 1000 ------- 3 2.0 7.0 2 18
+ 0.28328 3 4 tcp 1000 ------- 3 2.0 7.0 2 18
r 0.28328 1 3 tcp 1000 ------- 2 1.0 6.0 4 17
+ 0.28328 3 4 tcp 1000 ------- 2 1.0 6.0 4 17
- 0.28328 3 4 tcp 1000 ------- 2 1.0 6.0 2 15
r 0.28528 3 4 tcp 1000 ------- 1 0.0 5.0 2 12
+ 0.28528 4 5 tcp 1000 ------- 1 0.0 5.0 2 12
- 0.28528 4 5 tcp 1000 ------- 1 0.0 5.0 2 12
r 0.28728 2 3 tcp 1000 ------- 3 2.0 7.0 3 19
+ 0.28728 3 4 tcp 1000 ------- 3 2.0 7.0 3 19
r 0.29128 2 3 tcp 1000 ------- 3 2.0 7.0 4 20
+ 0.29128 3 4 tcp 1000 ------- 3 2.0 7.0 4 20
- 0.29128 3 4 tcp 1000 ------- 1 0.0 5.0 4 14
r 0.29328 3 4 tcp 1000 ------- 1 0.0 5.0 3 13
+ 0.29328 4 5 tcp 1000 ------- 1 0.0 5.0 3 13
- 0.29328 4 5 tcp 1000 ------- 1 0.0 5.0 3 13
r 0.29928 4 5 tcp 1000 ------- 1 0.0 5.0 2 12
+ 0.29928 5 4 ack 40 ------- 1 5.0 0.0 2 21
- 0.29928 5 4 ack 40 ------- 1 5.0 0.0 2 21
- 0.29928 3 4 tcp 1000 ------- 2 1.0 6.0 3 16
r 0.30128 3 4 tcp 1000 ------- 2 1.0 6.0 2 15
+ 0.30128 4 6 tcp 1000 ------- 2 1.0 6.0 2 15
- 0.30128 4 6 tcp 1000 ------- 2 1.0 6.0 2 15
r 0.30728 4 5 tcp 1000 ------- 1 0.0 5.0 3 13
+ 0.30728 5 4 ack 40 ------- 1 5.0 0.0 3 22
- 0.30728 5 4 ack 40 ------- 1 5.0 0.0 3 22
- 0.30728 3 4 tcp 1000 ------- 3 2.0 7.0 2 18
r 0.30928 3 4 tcp 1000 ------- 1 0.0 5.0 4 14
+ 0.30928 4 5 tcp 1000 ------- 1 0.0 5.0 4 14
- 0.30928 4 5 tcp 1000 ------- 1 0.0 5.0 4 14
r 0.30944 5 4 ack 40 ------- 1 5.0 0.0 2 21
+ 0.30944 4 3 ack 40 ------- 1 5.0 0.0 2 21
- 0.30944 4 3 ack 40 ------- 1 5.0 0.0 2 21
r 0.31528 4 6 tcp 1000 ------- 2 1.0 6.0 2 15
+ 0.31528 6 4 ack 40 ------- 2 6.0 1.0 2 23
- 0.31528 6 4 ack 40 ------- 2 6.0 1.0 2 23
- 0.31528 3 4 tcp 1000 ------- 2 1.0 6.0 4 17
r 0.31728 3 4 tcp 1000 ------- 2 1.0 6.0 3 16
+ 0.31728 4 6 tcp 1000 ------- 2 1.0 6.0 3 16
- 0.31728 4 6 tcp 1000 ------- 2 1.0 6.0 3 16
r 0.31744 5 4 ack 40 ------- 1 5.0 0.0 3 22
+ 0.31744 4 3 ack 40 ------- 1 5.0 0.0 3 22
- 0.31744 4 3 ack 40 ------- 1 5.0 0.0 3 22
r 0.31976 4 3 ack 40 ------- 1 5.0 0.0 2 21
+ 0.31976 3 0 ack 40 ------- 1 5.0 0.0 2 21
- 0.31976 3 0 ack 40 ------- 1 5.0 0.0 2 21
r 0.32328 4 5 tcp 1000 ------- 1 0.0 5.0 4 14
+ 0.32328 5 4 ack 40 ------- 1 5.0 0.0 4 24
- 0.32328 5 4 ack 40 ------- 1 5.0 0.0 4 24
- 0.32328 3 4 tcp 1000 ------- 3 2.0 7.0 3 19
r 0.32528 3 4 tcp 1000 ------- 3 2.0 7.0 2 18
+ 0.32528 4 7 tcp 1000 ------- 3 2.0 7.0 2 18
- 0.32528 4 7 tcp 1000 ------- 3 2.0 7.0 2 18
r 0.32544 6 4 ack 40 ------- 2 6.0 1.0 2 23
+ 0.32544 4 3 ack 40 ------- 2 6.0 1.0 2 23
- 0.32544 4 3 ack 40 ------- 2 6.0 1.0 2 23
r 0.32776 4 3 ack 40 ------- 1 5.0 0.0 3 22
+ 0.32776 3 0 ack 40 ------- 1 5.0 0.0 3 22
- 0.32776 3 0 ack 40 ------- 1 5.0 0.0 3 22
r 0.32992 3 0 ack 40 ------- 1 5.0 0.0 2 21
+ 0.32992 0 3 tcp 1000 ------- 1 0.0 5.0 5 25
- 0.32992 0 3 tcp 1000 ------- 1 0.0 5.0 5 25
r 0.33128 4 6 tcp 1000 ------- 2 1.0 6.0 3 16
+ 0.33128 6 4 ack 40 ------- 2 6.0 1.0 3 26
- 0.33128 6 4 ack 40 ------- 2 6.0 1.0 3 26
- 0.33128 3 4 tcp 1000 ------- 3 2.0 7.0 4 20
r 0.33328 3 4 tcp 1000 ------- 2 1.0 6.0 4 17
+ 0.33328 4 6 tcp 1000 ------- 2 1.0 6.0 4 17
- 0.33328 4 6 tcp 1000 ------- 2 1.0 6.0 4 17
r 0.33344 5 4 ack 40 ------- 1 5.0 0.0 4 24
+ 0.33344 4 3 ack 40 ------- 1 5.0 0.0 4 24
- 0.33344 4 3 ack 40 ------- 1 5.0 0.0 4 24
r 0.33576 4 3 ack 40 ------- 2 6.0 1.0 2 23
+ 0.33576 3 1 ack 40 ------- 2 6.0 1.0 2 23
- 0.33576 3 1 ack 40 ------- 2 6.0 1.0 2 23
r 0.33792 3 0 ack 40 ------- 1 5.0 0.0 3 22
+ 0.33792 0 3 tcp 1000 ------- 1 0.0 5.0 6 27
- 0.33792 0 3 tcp 1000 ------- 1 0.0 5.0 6 27
r 0.33928 4 7 tcp 1000 ------- 3 2.0 7.0 2 18
+ 0.33928 7 4 ack 40 ------- 3 7.0 2.0 2 28
- 0.33928 7 4 ack 40 ------- 3 7.0 2.0 2 28
r 0.34128 3 4 tcp 1000 ------- 3 2.0 7.0 3 19
+ 0.34128 4 7 tcp 1000 ------- 3 2.0 7.0 3 19
- 0.34128 4 7 tcp 1000 ------- 3 2.0 7.0 3 19
r 0.34144 6 4 ack 40 ------- 2 6.0 1.0 3 26
+ 0.34144 4 3 ack 40 ------- 2 6.0 1.0 3 26
- 0.34144 4 3 ack 40 ------- 2 6.0 1.0 3 26
r 0.34376 4 3 ack 40 ------- 1 5.0 0.0 4 24
+ 0.34376 3 0 ack 40 ------- 1 5.0 0.0 4 24
- 0.34376 3 0 ack 40 ------- 1 5.0 0.0 4 24
r 0.34392 0 3 tcp 1000 ------- 1 0.0 5.0 5 25
+ 0.34392 3 4 tcp 1000 ------- 1 0.0 5.0 5 25
- 0.34392 3 4 tcp 1000 ------- 1 0.0 5.0 5 25
r 0.34592 3 1 ack 40 ------- 2 6.0 1.0 2 23
+ 0.34592 1 3 tcp 1000 ------- 2 1.0 6.0 5 29
- 0.34592 1 3 tcp 1000 ------- 2 1.0 6.0 5 29
r 0.34728 4 6 tcp 1000 ------- 2 1.0 6.0 4 17
+ 0.34728 6 4 ack 40 ------- 2 6.0 1.0 4 30
- 0.34728 6 4 ack 40 ------- 2 6.0 1.0 4 30
r 0.34928 3 4 tcp 1000 ------- 3 2.0 7.0 4 20
+ 0.34928 4 7 tcp 1000 ------- 3 2.0 7.0 4 20
- 0.34928 4 7 tcp 1000 ------- 3 2.0 7.0 4 20
r 0.34944 7 4 ack 40 ------- 3 7.0 2.0 2 28
+ 0.34944 4 3 ack 40 ------- 3 7.0 2.0 2 28
- 0.34944 4 3 ack 40 ------- 3 7.0 2.0 2 28
r 0.35176 4 3 ack 40 ------- 2 6.0 1.0 3 26
+ 0.35176 3 1 ack 40 ------- 2 6.0 1.0 3 26
- 0.35176 3 1 ack 40 ------- 2 6.0 1.0 3 26
r 0.35192 0 3 tcp 1000 ------- 1 0.0 5.0 6 27
+ 0.35192 3 4 tcp 1000 ------- 1 0.0 5.0 6 27
- 0.35192 3 4 tcp 1000 ------- 1 0.0 5.0 6 27
r 0.35392 3 0 ack 40 ------- 1 5.0 0.0 4 24
+ 0.35392 0 3 tcp 1000 ------- 1 0.0 5.0 7 31
- 0.35392 0 3 tcp 1000 ------- 1 0.0 5.0 7 31
r 0.35528 4 7 tcp 1000 ------- 3 2.0 7.0 3 19
+ 0.35528 7 4 ack 40 ------- 3 7.0 2.0 3 32
- 0.35528 7 4 ack 40 ------- 3 7.0 2.0 3 32
r 0.35744 6 4 ack 40 ------- 2 6.0 1.0 4 30
+ 0.35744 4 3 ack 40 ------- 2 6.0 1.0 4 30
- 0.35744 4 3 ack 40 ------- 2 6.0 1.0 4 30
r 0.35976 4 3 ack 40 ------- 3 7.0 2.0 2 28
+ 0.35976 3 2 ack 40 ------- 3 7.0 2.0 2 28
- 0.35976 3 2 ack 40 ------- 3 7.0 2.0 2 28
r 0.35992 1 3 tcp 1000 ------- 2 1.0 6.0 5 29
+ 0.35992 3 4 tcp 1000 ------- 2 1.0 6.0 5 29
- 0.35992 3 4 tcp 1000 ------- 2 1.0 6.0 5 29
r 0.36192 3 4 tcp 1000 ------- 1 0.0 5.0 5 25
+ 0.36192 4 5 tcp 1000 ------- 1 0.0 5.0 5 25
- 0.36192 4 5 tcp 1000 ------- 1 0.0 5.0 5 25
r 0.36192 3 1 ack 40 ------- 2 6.0 1.0 3 26
+ 0.36192 1 3 tcp 1000 ------- 2 1.0 6.0 6 33
- 0.36192 1 3 tcp 1000 ------- 2 1.0 6.0 6 33
r 0.36328 4 7 tcp 1000 ------- 3 2.0 7.0 4 20
+ 0.36328 7 4 ack 40 ------- 3 7.0 2.0 4 34
- 0.36328 7 4 ack 40 ------- 3 7.0 2.0 4 34
r 0.36544 7 4 ack 40 ------- 3 7.0 2.0 3 32
+ 0.36544 4 3 ack 40 ------- 3 7.0 2.0 3 32
- 0.36544 4 3 ack 40 ------- 3 7.0 2.0 3 32
r 0.36776 4 3 ack 40 ------- 2 6.0 1.0 4 30
+ 0.36776 3 1 ack 40 ------- 2 6.0 1.0 4 30
- 0.36776 3 1 ack 40 ------- 2 6.0 1.0 4 30
r 0.36792 0 3 tcp 1000 ------- 1 0.0 5.0 7 31
+ 0.36792 3 4 tcp 1000 ------- 1 0.0 5.0 7 31
- 0.36792 3 4 tcp 1000 ------- 1 0.0 5.0 7 31
r 0.36992 3 4 tcp 1000 ------- 1 0.0 5.0 6 27
+ 0.36992 4 5 tcp 1000 ------- 1 0.0 5.0 6 27
- 0.36992 4 5 tcp 1000 ------- 1 0.0 5.0 6 27
r 0.36992 3 2 ack 40 ------- 3 7.0 2.0 2 28
+ 0.36992 2 3 tcp 1000 ------- 3 2.0 7.0 5 35
- 0.36992 2 3 tcp 1000 ------- 3 2.0 7.0 5 35
r 0.37344 7 4 ack 40 ------- 3 7.0 2.0 4 34
+ 0.37344 4 3 ack 40 ------- 3 7.0 2.0 4 34
- 0.37344 4 3 ack 40 ------- 3 7.0 2.0 4 34
r 0.37576 4 3 ack 40 ------- 3 7.0 2.0 3 32
+ 0.37576 3 2 ack 40 ------- 3 7.0 2.0 3 32
- 0.37576 3 2 ack 40 ------- 3 7.0 2.0 3 32
r 0.37592 4 5 tcp 1000 ------- 1 0.0 5.0 5 25
+ 0.37592 5 4 ack 40 ------- 1 5.0 0.0 5 36
- 0.37592 5 4 ack 40 ------- 1 5.0 0.0 5 36
r 0.37592 1 3 tcp 1000 ------- 2 1.0 6.0 6 33
+ 0.37592 3 4 tcp 1000 ------- 2 1.0 6.0 6 33
- 0.37592 3 4 tcp 1000 ------- 2 1.0 6.0 6 33
r 0.37792 3 4 tcp 1000 ------- 2 1.0 6.0 5 29
+ 0.37792 4 6 tcp 1000 ------- 2 1.0 6.0 5 29
- 0.37792 4 6 tcp 1000 ------- 2 1.0 6.0 5 29
r 0.37792 3 1 ack 40 ------- 2 6.0 1.0 4 30
+ 0.37792 1 3 tcp 1000 ------- 2 1.0 6.0 7 37
- 0.37792 1 3 tcp 1000 ------- 2 1.0 6.0 7 37
r 0.38376 4 3 ack 40 ------- 3 7.0 2.0 4 34
+ 0.38376 3 2 ack 40 ------- 3 7.0 2.0 4 34
- 0.38376 3 2 ack 40 ------- 3 7.0 2.0 4 34
r 0.38392 4 5 tcp 1000 ------- 1 0.0 5.0 6 27
+ 0.38392 5 4 ack 40 ------- 1 5.0 0.0 6 38
- 0.38392 5 4 ack 40 ------- 1 5.0 0.0 6 38
r 0.38392 2 3 tcp 1000 ------- 3 2.0 7.0 5 35
+ 0.38392 3 4 tcp 1000 ------- 3 2.0 7.0 5 35
- 0.38392 3 4 tcp 1000 ------- 3 2.0 7.0 5 35
r 0.38592 3 4 tcp 1000 ------- 1 0.0 5.0 7 31
+ 0.38592 4 5 tcp 1000 ------- 1 0.0 5.0 7 31
- 0.38592 4 5 tcp 1000 ------- 1 0.0 5.0 7 31
r 0.38592 3 2 ack 40 ------- 3 7.0 2.0 3 32
+ 0.38592 2 3 tcp 1000 ------- 3 2.0 7.0 6 39
- 0.38592 2 3 tcp 1000 ------- 3 2.0 7.0 6 39
r 0.38608 5 4 ack 40 ------- 1 5.0 0.0 5 36
+ 0.38608 4 3 ack 40 ------- 1 5.0 0.0 5 36
- 0.38608 4 3 ack 40 ------- 1 5.0 0.0 5 36
r 0.39192 4 6 tcp 1000 ------- 2 1.0 6.0 5 29
+ 0.39192 6 4 ack 40 ------- 2 6.0 1.0 5 40
- 0.39192 6 4 ack 40 ------- 2 6.0 1.0 5 40
r 0.39192 1 3 tcp 1000 ------- 2 1.0 6.0 7 37
+ 0.39192 3 4 tcp 1000 ------- 2 1.0 6.0 7 37
- 0.39192 3 4 tcp 1000 ------- 2 1.0 6.0 7 37
r 0.39392 3 4 tcp 1000 ------- 2 1.0 6.0 6 33
+ 0.39392 4 6 tcp 1000 ------- 2 1.0 6.0 6 33
- 0.39392 4 6 tcp 1000 ------- 2 1.0 6.0 6 33
r 0.39392 3 2 ack 40 ------- 3 7.0 2.0 4 34
+ 0.39392 2 3 tcp 1000 ------- 3 2.0 7.0 7 41
- 0.39392 2 3 tcp 1000 ------- 3 2.0 7.0 7 41
r 0.39408 5 4 ack 40 ------- 1 5.0 0.0 6 38
+ 0.39408 4 3 ack 40 ------- 1 5.0 0.0 6 38
- 0.39408 4 3 ack 40 ------- 1 5.0 0.0 6 38
r 0.3964 4 3 ack 40 ------- 1 5.0 0.0 5 36
+ 0.3964 3 0 ack 40 ------- 1 5.0 0.0 5 36
- 0.3964 3 0 ack 40 ------- 1 5.0 0.0 5 36
r 0.39992 4 5 tcp 1000 ------- 1 0.0 5.0 7 31
+ 0.39992 5 4 ack 40 ------- 1 5.0 0.0 7 42
- 0.39992 5 4 ack 40 ------- 1 5.0 0.0 7 42
r 0.39992 2 3 tcp 1000 ------- 3 2.0 7.0 6 39
+ 0.39992 3 4 tcp 1000 ------- 3 2.0 7.0 6 39
- 0.39992 3 4 tcp 1000 ------- 3 2.0 7.0 6 39
r 0.40192 3 4 tcp 1000 ------- 3 2.0 7.0 5 35
+ 0.40192 4 7 tcp 1000 ------- 3 2.0 7.0 5 35
- 0.40192 4 7 tcp 1000 ------- 3 2.0 7.0 5 35
r 0.40208 6 4 ack 40 ------- 2 6.0 1.0 5 40
+ 0.40208 4 3 ack 40 ------- 2 6.0 1.0 5 40
- 0.40208 4 3 ack 40 ------- 2 6.0 1.0 5 40
r 0.4044 4 3 ack 40 ------- 1 5.0 0.0 6 38
+ 0.4044 3 0 ack 40 ------- 1 5.0 0.0 6 38
- 0.4044 3 0 ack 40 ------- 1 5.0 0.0 6 38
r 0.40656 3 0 ack 40 ------- 1 5.0 0.0 5 36
+ 0.40656 0 3 tcp 1000 ------- 1 0.0 5.0 8 43
- 0.40656 0 3 tcp 1000 ------- 1 0.0 5.0 8 43
+ 0.40656 0 3 tcp 1000 ------- 1 0.0 5.0 9 44
r 0.40792 4 6 tcp 1000 ------- 2 1.0 6.0 6 33
+ 0.40792 6 4 ack 40 ------- 2 6.0 1.0 6 45
- 0.40792 6 4 ack 40 ------- 2 6.0 1.0 6 45
r 0.40792 2 3 tcp 1000 ------- 3 2.0 7.0 7 41
+ 0.40792 3 4 tcp 1000 ------- 3 2.0 7.0 7 41
- 0.40792 3 4 tcp 1000 ------- 3 2.0 7.0 7 41
r 0.40992 3 4 tcp 1000 ------- 2 1.0 6.0 7 37
+ 0.40992 4 6 tcp 1000 ------- 2 1.0 6.0 7 37
- 0.40992 4 6 tcp 1000 ------- 2 1.0 6.0 7 37
r 0.41008 5 4 ack 40 ------- 1 5.0 0.0 7 42
+ 0.41008 4 3 ack 40 ------- 1 5.0 0.0 7 42
- 0.41008 4 3 ack 40 ------- 1 5.0 0.0 7 42
- 0.41056 0 3 tcp 1000 ------- 1 0.0 5.0 9 44
r 0.4124 4 3 ack 40 ------- 2 6.0 1.0 5 40
+ 0.4124 3 1 ack 40 ------- 2 6.0 1.0 5 40
- 0.4124 3 1 ack 40 ------- 2 6.0 1.0 5 40
r 0.41456 3 0 ack 40 ------- 1 5.0 0.0 6 38
+ 0.41456 0 3 tcp 1000 ------- 1 0.0 5.0 10 46
+ 0.41456 0 3 tcp 1000 ------- 1 0.0 5.0 11 47
- 0.41456 0 3 tcp 1000 ------- 1 0.0 5.0 10 46
r 0.41592 4 7 tcp 1000 ------- 3 2.0 7.0 5 35
+ 0.41592 7 4 ack 40 ------- 3 7.0 2.0 5 48
- 0.41592 7 4 ack 40 ------- 3 7.0 2.0 5 48
r 0.41792 3 4 tcp 1000 ------- 3 2.0 7.0 6 39
+ 0.41792 4 7 tcp 1000 ------- 3 2.0 7.0 6 39
- 0.41792 4 7 tcp 1000 ------- 3 2.0 7.0 6 39
r 0.41808 6 4 ack 40 ------- 2 6.0 1.0 6 45
+ 0.41808 4 3 ack 40 ------- 2 6.0 1.0 6 45
- 0.41808 4 3 ack 40 ------- 2 6.0 1.0 6 45
- 0.41856 0 3 tcp 1000 ------- 1 0.0 5.0 11 47
r 0.4204 4 3 ack 40 ------- 1 5.0 0.0 7 42
+ 0.4204 3 0 ack 40 ------- 1 5.0 0.0 7 42
- 0.4204 3 0 ack 40 ------- 1 5.0 0.0 7 42
r 0.42056 0 3 tcp 1000 ------- 1 0.0 5.0 8 43
+ 0.42056 3 4 tcp 1000 ------- 1 0.0 5.0 8 43
- 0.42056 3 4 tcp 1000 ------- 1 0.0 5.0 8 43
r 0.42256 3 1 ack 40 ------- 2 6.0 1.0 5 40
+ 0.42256 1 3 tcp 1000 ------- 2 1.0 6.0 8 49
- 0.42256 1 3 tcp 1000 ------- 2 1.0 6.0 8 49
+ 0.42256 1 3 tcp 1000 ------- 2 1.0 6.0 9 50
r 0.42392 4 6 tcp 1000 ------- 2 1.0 6.0 7 37
+ 0.42392 6 4 ack 40 ------- 2 6.0 1.0 7 51
- 0.42392 6 4 ack 40 ------- 2 6.0 1.0 7 51
r 0.42456 0 3 tcp 1000 ------- 1 0.0 5.0 9 44
+ 0.42456 3 4 tcp 1000 ------- 1 0.0 5.0 9 44
r 0.42592 3 4 tcp 1000 ------- 3 2.0 7.0 7 41
+ 0.42592 4 7 tcp 1000 ------- 3 2.0 7.0 7 41
- 0.42592 4 7 tcp 1000 ------- 3 2.0 7.0 7 41
r 0.42608 7 4 ack 40 ------- 3 7.0 2.0 5 48
+ 0.42608 4 3 ack 40 ------- 3 7.0 2.0 5 48
- 0.42608 4 3 ack 40 ------- 3 7.0 2.0 5 48
- 0.42656 1 3 tcp 1000 ------- 2 1.0 6.0 9 50
r 0.4284 4 3 ack 40 ------- 2 6.0 1.0 6 45
+ 0.4284 3 1 ack 40 ------- 2 6.0 1.0 6 45
- 0.4284 3 1 ack 40 ------- 2 6.0 1.0 6 45
r 0.42856 0 3 tcp 1000 ------- 1 0.0 5.0 10 46
+ 0.42856 3 4 tcp 1000 ------- 1 0.0 5.0 10 46
- 0.42856 3 4 tcp 1000 ------- 1 0.0 5.0 9 44
r 0.43056 3 0 ack 40 ------- 1 5.0 0.0 7 42
+ 0.43056 0 3 tcp 1000 ------- 1 0.0 5.0 12 52
- 0.43056 0 3 tcp 1000 ------- 1 0.0 5.0 12 52
+ 0.43056 0 3 tcp 1000 ------- 1 0.0 5.0 13 53
r 0.43192 4 7 tcp 1000 ------- 3 2.0 7.0 6 39
+ 0.43192 7 4 ack 40 ------- 3 7.0 2.0 6 54
- 0.43192 7 4 ack 40 ------- 3 7.0 2.0 6 54
r 0.43256 0 3 tcp 1000 ------- 1 0.0 5.0 11 47
+ 0.43256 3 4 tcp 1000 ------- 1 0.0 5.0 11 47
r 0.43408 6 4 ack 40 ------- 2 6.0 1.0 7 51
+ 0.43408 4 3 ack 40 ------- 2 6.0 1.0 7 51
- 0.43408 4 3 ack 40 ------- 2 6.0 1.0 7 51
- 0.43456 0 3 tcp 1000 ------- 1 0.0 5.0 13 53
r 0.4364 4 3 ack 40 ------- 3 7.0 2.0 5 48
+ 0.4364 3 2 ack 40 ------- 3 7.0 2.0 5 48
- 0.4364 3 2 ack 40 ------- 3 7.0 2.0 5 48
r 0.43656 1 3 tcp 1000 ------- 2 1.0 6.0 8 49
+ 0.43656 3 4 tcp 1000 ------- 2 1.0 6.0 8 49
- 0.43656 3 4 tcp 1000 ------- 1 0.0 5.0 10 46
r 0.43856 3 4 tcp 1000 ------- 1 0.0 5.0 8 43
+ 0.43856 4 5 tcp 1000 ------- 1 0.0 5.0 8 43
- 0.43856 4 5 tcp 1000 ------- 1 0.0 5.0 8 43
r 0.43856 3 1 ack 40 ------- 2 6.0 1.0 6 45
+ 0.43856 1 3 tcp 1000 ------- 2 1.0 6.0 10 55
- 0.43856 1 3 tcp 1000 ------- 2 1.0 6.0 10 55
+ 0.43856 1 3 tcp 1000 ------- 2 1.0 6.0 11 56
r 0.43992 4 7 tcp 1000 ------- 3 2.0 7.0 7 41
+ 0.43992 7 4 ack 40 ------- 3 7.0 2.0 7 57
- 0.43992 7 4 ack 40 ------- 3 7.0 2.0 7 57
r 0.44056 1 3 tcp 1000 ------- 2 1.0 6.0 9 50
+ 0.44056 3 4 tcp 1000 ------- 2 1.0 6.0 9 50
r 0.44208 7 4 ack 40 ------- 3 7.0 2.0 6 54
+ 0.44208 4 3 ack 40 ------- 3 7.0 2.0 6 54
- 0.44208 4 3 ack 40 ------- 3 7.0 2.0 6 54
- 0.44256 1 3 tcp 1000 ------- 2 1.0 6.0 11 56
r 0.4444 4 3 ack 40 ------- 2 6.0 1.0 7 51
+ 0.4444 3 1 ack 40 ------- 2 6.0 1.0 7 51
- 0.4444 3 1 ack 40 ------- 2 6.0 1.0 7 51
r 0.44456 0 3 tcp 1000 ------- 1 0.0 5.0 12 52
+ 0.44456 3 4 tcp 1000 ------- 1 0.0 5.0 12 52
- 0.44456 3 4 tcp 1000 ------- 1 0.0 5.0 11 47
r 0.44656 3 4 tcp 1000 ------- 1 0.0 5.0 9 44
+ 0.44656 4 5 tcp 1000 ------- 1 0.0 5.0 9 44
- 0.44656 4 5 tcp 1000 ------- 1 0.0 5.0 9 44
r 0.44656 3 2 ack 40 ------- 3 7.0 2.0 5 48
+ 0.44656 2 3 tcp 1000 ------- 3 2.0 7.0 8 58
- 0.44656 2 3 tcp 1000 ------- 3 2.0 7.0 8 58
+ 0.44656 2 3 tcp 1000 ------- 3 2.0 7.0 9 59
r 0.44856 0 3 tcp 1000 ------- 1 0.0 5.0 13 53
+ 0.44856 3 4 tcp 1000 ------- 1 0.0 5.0 13 53
r 0.45008 7 4 ack 40 ------- 3 7.0 2.0 7 57
+ 0.45008 4 3 ack 40 ------- 3 7.0 2.0 7 57
- 0.45008 4 3 ack 40 ------- 3 7.0 2.0 7 57
- 0.45056 2 3 tcp 1000 ------- 3 2.0 7.0 9 59
r 0.4524 4 3 ack 40 ------- 3 7.0 2.0 6 54
+ 0.4524 3 2 ack 40 ------- 3 7.0 2.0 6 54
- 0.4524 3 2 ack 40 ------- 3 7.0 2.0 6 54
r 0.45256 4 5 tcp 1000 ------- 1 0.0 5.0 8 43
+ 0.45256 5 4 ack 40 ------- 1 5.0 0.0 8 60
- 0.45256 5 4 ack 40 ------- 1 5.0 0.0 8 60
r 0.45256 1 3 tcp 1000 ------- 2 1.0 6.0 10 55
+ 0.45256 3 4 tcp 1000 ------- 2 1.0 6.0 10 55
- 0.45256 3 4 tcp 1000 ------- 2 1.0 6.0 8 49
r 0.45456 3 4 tcp 1000 ------- 1 0.0 5.0 10 46
+ 0.45456 4 5 tcp 1000 ------- 1 0.0 5.0 10 46
- 0.45456 4 5 tcp 1000 ------- 1 0.0 5.0 10 46
r 0.45456 3 1 ack 40 ------- 2 6.0 1.0 7 51
+ 0.45456 1 3 tcp 1000 ------- 2 1.0 6.0 12 61
- 0.45456 1 3 tcp 1000 ------- 2 1.0 6.0 12 61
+ 0.45456 1 3 tcp 1000 ------- 2 1.0 6.0 13 62
r 0.45656 1 3 tcp 1000 ------- 2 1.0 6.0 11 56
+ 0.45656 3 4 tcp 1000 ------- 2 1.0 6.0 11 56
- 0.45856 1 3 tcp 1000 ------- 2 1.0 6.0 13 62
r 0.4604 4 3 ack 40 ------- 3 7.0 2.0 7 57
+ 0.4604 3 2 ack 40 ------- 3 7.0 2.0 7 57
- 0.4604 3 2 ack 40 ------- 3 7.0 2.0 7 57
r 0.46056 4 5 tcp 1000 ------- 1 0.0 5.0 9 44
+ 0.46056 5 4 ack 40 ------- 1 5.0 0.0 9 63
- 0.46056 5 4 ack 40 ------- 1 5.0 0.0 9 63
r 0.46056 2 3 tcp 1000 ------- 3 2.0 7.0 8 58
+ 0.46056 3 4 tcp 1000 ------- 3 2.0 7.0 8 58
- 0.46056 3 4 tcp 1000 ------- 2 1.0 6.0 9 50
r 0.46256 3 4 tcp 1000 ------- 1 0.0 5.0 11 47
+ 0.46256 4 5 tcp 1000 ------- 1 0.0 5.0 11 47
- 0.46256 4 5 tcp 1000 ------- 1 0.0 5.0 11 47
r 0.46256 3 2 ack 40 ------- 3 7.0 2.0 6 54
+ 0.46256 2 3 tcp 1000 ------- 3 2.0 7.0 10 64
- 0.46256 2 3 tcp 1000 ------- 3 2.0 7.0 10 64
+ 0.46256 2 3 tcp 1000 ------- 3 2.0 7.0 11 65
r 0.46272 5 4 ack 40 ------- 1 5.0 0.0 8 60
+ 0.46272 4 3 ack 40 ------- 1 5.0 0.0 8 60
- 0.46272 4 3 ack 40 ------- 1 5.0 0.0 8 60
r 0.46456 2 3 tcp 1000 ------- 3 2.0 7.0 9 59
+ 0.46456 3 4 tcp 1000 ------- 3 2.0 7.0 9 59
- 0.46656 2 3 tcp 1000 ------- 3 2.0 7.0 11 65
r 0.46856 4 5 tcp 1000 ------- 1 0.0 5.0 10 46
+ 0.46856 5 4 ack 40 ------- 1 5.0 0.0 10 66
- 0.46856 5 4 ack 40 ------- 1 5.0 0.0 10 66
r 0.46856 1 3 tcp 1000 ------- 2 1.0 6.0 12 61
+ 0.46856 3 4 tcp 1000 ------- 2 1.0 6.0 12 61
- 0.46856 3 4 tcp 1000 ------- 1 0.0 5.0 12 52
r 0.47056 3 4 tcp 1000 ------- 2 1.0 6.0 8 49
+ 0.47056 4 6 tcp 1000 ------- 2 1.0 6.0 8 49
- 0.47056 4 6 tcp 1000 ------- 2 1.0 6.0 8 49
r 0.47056 3 2 ack 40 ------- 3 7.0 2.0 7 57
+ 0.47056 2 3 tcp 1000 ------- 3 2.0 7.0 12 67
+ 0.47056 2 3 tcp 1000 ------- 3 2.0 7.0 13 68
- 0.47056 2 3 tcp 1000 ------- 3 2.0 7.0 12 67
r 0.47072 5 4 ack 40 ------- 1 5.0 0.0 9 63
+ 0.47072 4 3 ack 40 ------- 1 5.0 0.0 9 63
- 0.47072 4 3 ack 40 ------- 1 5.0 0.0 9 63
r 0.47256 1 3 tcp 1000 ------- 2 1.0 6.0 13 62
+ 0.47256 3 4 tcp 1000 ------- 2 1.0 6.0 13 62
r 0.47304 4 3 ack 40 ------- 1 5.0 0.0 8 60
+ 0.47304 3 0 ack 40 ------- 1 5.0 0.0 8 60
- 0.47304 3 0 ack 40 ------- 1 5.0 0.0 8 60
- 0.47456 2 3 tcp 1000 ------- 3 2.0 7.0 13 68
r 0.47656 4 5 tcp 1000 ------- 1 0.0 5.0 11 47
+ 0.47656 5 4 ack 40 ------- 1 5.0 0.0 11 69
- 0.47656 5 4 ack 40 ------- 1 5.0 0.0 11 69
r 0.47656 2 3 tcp 1000 ------- 3 2.0 7.0 10 64
+ 0.47656 3 4 tcp 1000 ------- 3 2.0 7.0 10 64
- 0.47656 3 4 tcp 1000 ------- 1 0.0 5.0 13 53
r 0.47856 3 4 tcp 1000 ------- 2 1.0 6.0 9 50
+ 0.47856 4 6 tcp 1000 ------- 2 1.0 6.0 9 50
- 0.47856 4 6 tcp 1000 ------- 2 1.0 6.0 9 50
r 0.47872 5 4 ack 40 ------- 1 5.0 0.0 10 66
+ 0.47872 4 3 ack 40 ------- 1 5.0 0.0 10 66
- 0.47872 4 3 ack 40 ------- 1 5.0 0.0 10 66
r 0.48056 2 3 tcp 1000 ------- 3 2.0 7.0 11 65
+ 0.48056 3 4 tcp 1000 ------- 3 2.0 7.0 11 65
r 0.48104 4 3 ack 40 ------- 1 5.0 0.0 9 63
+ 0.48104 3 0 ack 40 ------- 1 5.0 0.0 9 63
- 0.48104 3 0 ack 40 ------- 1 5.0 0.0 9 63
r 0.4832 3 0 ack 40 ------- 1 5.0 0.0 8 60
+ 0.4832 0 3 tcp 1000 ------- 1 0.0 5.0 14 70
- 0.4832 0 3 tcp 1000 ------- 1 0.0 5.0 14 70
r 0.48456 4 6 tcp 1000 ------- 2 1.0 6.0 8 49
+ 0.48456 6 4 ack 40 ------- 2 6.0 1.0 8 71
- 0.48456 6 4 ack 40 ------- 2 6.0 1.0 8 71
r 0.48456 2 3 tcp 1000 ------- 3 2.0 7.0 12 67
+ 0.48456 3 4 tcp 1000 ------- 3 2.0 7.0 12 67
- 0.48456 3 4 tcp 1000 ------- 2 1.0 6.0 10 55
r 0.48656 3 4 tcp 1000 ------- 1 0.0 5.0 12 52
+ 0.48656 4 5 tcp 1000 ------- 1 0.0 5.0 12 52
- 0.48656 4 5 tcp 1000 ------- 1 0.0 5.0 12 52
r 0.48672 5 4 ack 40 ------- 1 5.0 0.0 11 69
+ 0.48672 4 3 ack 40 ------- 1 5.0 0.0 11 69
- 0.48672 4 3 ack 40 ------- 1 5.0 0.0 11 69
r 0.48856 2 3 tcp 1000 ------- 3 2.0 7.0 13 68
+ 0.48856 3 4 tcp 1000 ------- 3 2.0 7.0 13 68
r 0.48904 4 3 ack 40 ------- 1 5.0 0.0 10 66
+ 0.48904 3 0 ack 40 ------- 1 5.0 0.0 10 66
- 0.48904 3 0 ack 40 ------- 1 5.0 0.0 10 66
r 0.4912 3 0 ack 40 ------- 1 5.0 0.0 9 63
+ 0.4912 0 3 tcp 1000 ------- 1 0.0 5.0 15 72
- 0.4912 0 3 tcp 1000 ------- 1 0.0 5.0 15 72
r 0.49256 4 6 tcp 1000 ------- 2 1.0 6.0 9 50
+ 0.49256 6 4 ack 40 ------- 2 6.0 1.0 9 73
- 0.49256 6 4 ack 40 ------- 2 6.0 1.0 9 73
- 0.49256 3 4 tcp 1000 ------- 2 1.0 6.0 11 56
r 0.49456 3 4 tcp 1000 ------- 1 0.0 5.0 13 53
+ 0.49456 4 5 tcp 1000 ------- 1 0.0 5.0 13 53
- 0.49456 4 5 tcp 1000 ------- 1 0.0 5.0 13 53
r 0.49472 6 4 ack 40 ------- 2 6.0 1.0 8 71
+ 0.49472 4 3 ack 40 ------- 2 6.0 1.0 8 71
- 0.49472 4 3 ack 40 ------- 2 6.0 1.0 8 71
r 0.49704 4 3 ack 40 ------- 1 5.0 0.0 11 69
+ 0.49704 3 0 ack 40 ------- 1 5.0 0.0 11 69
- 0.49704 3 0 ack 40 ------- 1 5.0 0.0 11 69
r 0.4972 0 3 tcp 1000 ------- 1 0.0 5.0 14 70
+ 0.4972 3 4 tcp 1000 ------- 1 0.0 5.0 14 70
r 0.4992 3 0 ack 40 ------- 1 5.0 0.0 10 66
+ 0.4992 0 3 tcp 1000 ------- 1 0.0 5.0 16 74
- 0.4992 0 3 tcp 1000 ------- 1 0.0 5.0 16 74
r 0.50056 4 5 tcp 1000 ------- 1 0.0 5.0 12 52
+ 0.50056 5 4 ack 40 ------- 1 5.0 0.0 12 75
- 0.50056 5 4 ack 40 ------- 1 5.0 0.0 12 75
- 0.50056 3 4 tcp 1000 ------- 3 2.0 7.0 8 58
r 0.50256 3 4 tcp 1000 ------- 2 1.0 6.0 10 55
+ 0.50256 4 6 tcp 1000 ------- 2 1.0 6.0 10 55
- 0.50256 4 6 tcp 1000 ------- 2 1.0 6.0 10 55
r 0.50272 6 4 ack 40 ------- 2 6.0 1.0 9 73
+ 0.50272 4 3 ack 40 ------- 2 6.0 1.0 9 73
- 0.50272 4 3 ack 40 ------- 2 6.0 1.0 9 73
r 0.50504 4 3 ack 40 ------- 2 6.0 1.0 8 71
+ 0.50504 3 1 ack 40 ------- 2 6.0 1.0 8 71
- 0.50504 3 1 ack 40 ------- 2 6.0 1.0 8 71
r 0.5052 0 3 tcp 1000 ------- 1 0.0 5.0 15 72
+ 0.5052 3 4 tcp 1000 ------- 1 0.0 5.0 15 72
r 0.5072 3 0 ack 40 ------- 1 5.0 0.0 11 69
+ 0.5072 0 3 tcp 1000 ------- 1 0.0 5.0 17 76
- 0.5072 0 3 tcp 1000 ------- 1 0.0 5.0 17 76
r 0.50856 4 5 tcp 1000 ------- 1 0.0 5.0 13 53
+ 0.50856 5 4 ack 40 ------- 1 5.0 0.0 13 77
- 0.50856 5 4 ack 40 ------- 1 5.0 0.0 13 77
- 0.50856 3 4 tcp 1000 ------- 3 2.0 7.0 9 59
r 0.51056 3 4 tcp 1000 ------- 2 1.0 6.0 11 56
+ 0.51056 4 6 tcp 1000 ------- 2 1.0 6.0 11 56
- 0.51056 4 6 tcp 1000 ------- 2 1.0 6.0 11 56
r 0.51072 5 4 ack 40 ------- 1 5.0 0.0 12 75
+ 0.51072 4 3 ack 40 ------- 1 5.0 0.0 12 75
- 0.51072 4 3 ack 40 ------- 1 5.0 0.0 12 75
r 0.51304 4 3 ack 40 ------- 2 6.0 1.0 9 73
+ 0.51304 3 1 ack 40 ------- 2 6.0 1.0 9 73
- 0.51304 3 1 ack 40 ------- 2 6.0 1.0 9 73
r 0.5132 0 3 tcp 1000 ------- 1 0.0 5.0 16 74
+ 0.5132 3 4 tcp 1000 ------- 1 0.0 5.0 16 74
r 0.5152 3 1 ack 40 ------- 2 6.0 1.0 8 71
+ 0.5152 1 3 tcp 1000 ------- 2 1.0 6.0 14 78
- 0.5152 1 3 tcp 1000 ------- 2 1.0 6.0 14 78
r 0.51656 4 6 tcp 1000 ------- 2 1.0 6.0 10 55
+ 0.51656 6 4 ack 40 ------- 2 6.0 1.0 10 79
- 0.51656 6 4 ack 40 ------- 2 6.0 1.0 10 79
- 0.51656 3 4 tcp 1000 ------- 2 1.0 6.0 12 61
r 0.51856 3 4 tcp 1000 ------- 3 2.0 7.0 8 58
+ 0.51856 4 7 tcp 1000 ------- 3 2.0 7.0 8 58
- 0.51856 4 7 tcp 1000 ------- 3 2.0 7.0 8 58
r 0.51872 5 4 ack 40 ------- 1 5.0 0.0 13 77
+ 0.51872 4 3 ack 40 ------- 1 5.0 0.0 13 77
- 0.51872 4 3 ack 40 ------- 1 5.0 0.0 13 77
r 0.52104 4 3 ack 40 ------- 1 5.0 0.0 12 75
+ 0.52104 3 0 ack 40 ------- 1 5.0 0.0 12 75
- 0.52104 3 0 ack 40 ------- 1 5.0 0.0 12 75
r 0.5212 0 3 tcp 1000 ------- 1 0.0 5.0 17 76
+ 0.5212 3 4 tcp 1000 ------- 1 0.0 5.0 17 76
r 0.5232 3 1 ack 40 ------- 2 6.0 1.0 9 73
+ 0.5232 1 3 tcp 1000 ------- 2 1.0 6.0 15 80
- 0.5232 1 3 tcp 1000 ------- 2 1.0 6.0 15 80
r 0.52456 4 6 tcp 1000 ------- 2 1.0 6.0 11 56
+ 0.52456 6 4 ack 40 ------- 2 6.0 1.0 11 81
- 0.52456 6 4 ack 40 ------- 2 6.0 1.0 11 81
- 0.52456 3 4 tcp 1000 ------- 2 1.0 6.0 13 62
r 0.52656 3 4 tcp 1000 ------- 3 2.0 7.0 9 59
+ 0.52656 4 7 tcp 1000 ------- 3 2.0 7.0 9 59
- 0.52656 4 7 tcp 1000 ------- 3 2.0 7.0 9 59
r 0.52672 6 4 ack 40 ------- 2 6.0 1.0 10 79
+ 0.52672 4 3 ack 40 ------- 2 6.0 1.0 10 79
- 0.52672 4 3 ack 40 ------- 2 6.0 1.0 10 79
r 0.52904 4 3 ack 40 ------- 1 5.0 0.0 13 77
+ 0.52904 3 0 ack 40 ------- 1 5.0 0.0 13 77
- 0.52904 3 0 ack 40 ------- 1 5.0 0.0 13 77
r 0.5292 1 3 tcp 1000 ------- 2 1.0 6.0 14 78
+ 0.5292 3 4 tcp 1000 ------- 2 1.0 6.0 14 78
r 0.5312 3 0 ack 40 ------- 1 5.0 0.0 12 75
+ 0.5312 0 3 tcp 1000 ------- 1 0.0 5.0 18 82
- 0.5312 0 3 tcp 1000 ------- 1 0.0 5.0 18 82