V -t * -v 1.0a5 -a 0
A -t * -n 1 -p 0 -o 0x7fffffff -c 30 -a 1
A -t * -h 1 -m 1073741823 -s 0
n -t * -a 4 -s 4 -S UP -v circle -c black -i black
n -t * -a 0 -s 0 -S UP -v circle -c black -i black
n -t * -a 5 -s 5 -S UP -v circle -c black -i black
n -t * -a 1 -s 1 -S UP -v circle -c black -i black
n -t * -a 6 -s 6 -S UP -v circle -c black -i black
n -t * -a 2 -s 2 -S UP -v circle -c black -i black
n -t * -a 7 -s 7 -S UP -v circle -c black -i black
n -t * -a 3 -s 3 -S UP -v circle -c black -i black
l -t * -s 0 -d 3 -S UP -r 2000000 -D 0.01 -c black
l -t * -s 1 -d 3 -S UP -r 2000000 -D 0.01 -c black
l -t * -s 2 -d 3 -S UP -r 2000000 -D 0.01 -c black
l -t * -s 3 -d 4 -S UP -r 1000000 -D 0.01 -c black
l -t * -s 4 -d 5 -S UP -r 2000000 -D 0.01 -c black
l -t * -s 4 -d 6 -S UP -r 2000000 -D 0.01 -c black
l -t * -s 4 -d 7 -S UP -r 2000000 -D 0.01 -c black
+ -t 0.1 -s 0 -d 3 -p tcp -e 1000 -c 1 -i 0 -a 1 -x {0.0 5.0 0 ------- null}
- -t 0.1 -s 0 -d 3 -p tcp -e 1000 -c 1 -i 0 -a 1 -x {0.0 5.0 0 ------- null}
h -t 0.1 -s 0 -d 3 -p tcp -e 1000 -c 1 -i 0 -a 1 -x {0.0 5.0 -1 ------- null}
+ -t 0.1 -s 1 -d 3 -p tcp -e 1000 -c 2 -i 1 -a 2 -x {1.0 6.0 0 ------- null}
- -t 0.1 -s 1 -d 3 -p tcp -e 1000 -c 2 -i 1 -a 2 -x {1.0 6.0 0 ------- null}
h -t 0.1 -s 1 -d 3 -p tcp -e 1000 -c 2 -i 1 -a 2 -x {1.0 6.0 -1 ------- null}
+ -t 0.1 -s 2 -d 3 -p tcp -e 1000 -c 3 -i 2 -a 3 -x {2.0 7.0 0 ------- null}
- -t 0.1 -s 2 -d 3 -p tcp -e 1000 -c 3 -i 2 -a 3 -x {2.0 7.0 0 ------- null}
h -t 0.1 -s 2 -d 3 -p tcp -e 1000 -c 3 -i 2 -a 3 -x {2.0 7.0 -1 ------- null}
r -t 0.114 -s 0 -d 3 -p tcp -e 1000 -c 1 -i 0 -a 1 -x {0.0 5.0 0 ------- null}
+ -t 0.114 -s 3 -d 4 -p tcp -e 1000 -c 1 -i 0 -a 1 -x {0.0 5.0 0 ------- null}
- -t 0.114 -s 3 -d 4 -p tcp -e 1000 -c 1 -i 0 -a 1 -x {0.0 5.0 0 ------- null}
h -t 0.114 -s 3 -d 4 -p tcp -e 1000 -c 1 -i 0 -a 1 -x {0.0 5.0 -1 ------- null}
r -t 0.114 -s 1 -d 3 -p tcp -e 1000 -c 2 -i 1 -a 2 -x {1.0 6.0 0 ------- null}
+ -t 0.114 -s 3 -d 4 -p tcp -e 1000 -c 2 -i 1 -a 2 -x {1.0 6.0 0 ------- null}
r -t 0.114 -s 2 -d 3 -p tcp -e 1000 -c 3 -i 2 -a 3 -x {2.0 7.0 0 ------- null}
+ -t 0.114 -s 3 -d 4 -p tcp -e 1000 -c 3 -i 2 -a 3 -x {2.0 7.0 0 ------- null}
- -t 0.122 -s 3 -d 4 -p tcp -e 1000 -c 2 -i 1 -a 2 -x {1.0 6.0 0 ------- null}
h -t 0.122 -s 3 -d 4 -p tcp -e 1000 -c 2 -i 1 -a 2 -x {1.0 6.0 -1 ------- null}
- -t 0.13 -s 3 -d 4 -p tcp -e 1000 -c 3 -i 2 -a 3 -x {2.0 7.0 0 ------- null}
h -t 0.13 -s 3 -d 4 -p tcp -e 1000 -c 3 -i 2 -a 3 -x {2.0 7.0 -1 ------- null}
r -t 0.132 -s 3 -d 4 -p tcp -e 1000 -c 1 -i 0 -a 1 -x {0.0 5.0 0 ------- null}
+ -t 0.132 -s 4 -d 5 -p tcp -e 1000 -c 1 -i 0 -a 1 -x {0.0 5.0 0 ------- null}
- -t 0.132 -s 4 -d 5 -p tcp -e 1000 -c 1 -i 0 -a 1 -x {0.0 5.0 0 ------- null}
h -t 0.132 -s 4 -d 5 -p tcp -e 1000 -c 1 -i 0 -a 1 -x {0.0 5.0 -1 ------- null}
r -t 0.14 -s 3 -d 4 -p tcp -e 1000 -c 2 -i 1 -a 2 -x {1.0 6.0 0 ------- null}
+ -t 0.14 -s 4 -d 6 -p tcp -e 1000 -c 2 -i 1 -a 2 -x {1.0 6.0 0 ------- null}
- -t 0.14 -s 4 -d 6 -p tcp -e 1000 -c 2 -i 1 -a 2 -x {1.0 6.0 0 ------- null}
h -t 0.14 -s 4 -d 6 -p tcp -e 1000 -c 2 -i 1 -a 2 -x {1.0 6.0 -1 ------- null}
r -t 0.146 -s 4 -d 5 -p tcp -e 1000 -c 1 -i 0 -a 1 -x {0.0 5.0 0 ------- null}
+ -t 0.146 -s 5 -d 4 -p ack -e 40 -c 1 -i 3 -a 1 -x {5.0 0.0 0 ------- null}
- -t 0.146 -s 5 -d 4 -p ack -e 40 -c 1 -i 3 -a 1 -x {5.0 0.0 0 ------- null}
h -t 0.146 -s 5 -d 4 -p ack -e 40 -c 1 -i 3 -a 1 -x {5.0 0.0 -1 ------- null}
r -t 0.148 -s 3 -d 4 -p tcp -e 1000 -c 3 -i 2 -a 3 -x {2.0 7.0 0 ------- null}
+ -t 0.148 -s 4 -d 7 -p tcp -e 1000 -c 3 -i 2 -a 3 -x {2.0 7.0 0 ------- null}
- -t 0.148 -s 4 -d 7 -p tcp -e 1000 -c 3 -i 2 -a 3 -x {2.0 7.0 0 ------- null}
h -t 0.148 -s 4 -d 7 -p tcp -e 1000 -c 3 -i 2 -a 3 -x {2.0 7.0 -1 ------- null}
r -t 0.154 -s 4 -d 6 -p tcp -e 1000 -c 2 -i 1 -a 2 -x {1.0 6.0 0 ------- null}
+ -t 0.154 -s 6 -d 4 -p ack -e 40 -c 2 -i 4 -a 2 -x {6.0 1.0 0 ------- null}
- -t 0.154 -s 6 -d 4 -p ack -e 40 -c 2 -i 4 -a 2 -x {6.0 1.0 0 ------- null}
h -t 0.154 -s 6 -d 4 -p ack -e 40 -c 2 -i 4 -a 2 -x {6.0 1.0 -1 ------- null}
r -t 0.15616 -s 5 -d 4 -p ack -e 40 -c 1 -i 3 -a 1 -x {5.0 0.0 0 ------- null}
+ -t 0.15616 -s 4 -d 3 -p ack -e 40 -c 1 -i 3 -a 1 -x {5.0 0.0 0 ------- null}
- -t 0.15616 -s 4 -d 3 -p ack -e 40 -c 1 -i 3 -a 1 -x {5.0 0.0 0 ------- null}
h -t 0.15616 -s 4 -d 3 -p ack -e 40 -c 1 -i 3 -a 1 -x {5.0 0.0 -1 ------- null}
r -t 0.162 -s 4 -d 7 -p tcp -e 1000 -c 3 -i 2 -a 3 -x {2.0 7.0 0 ------- null}
+ -t 0.162 -s 7 -d 4 -p ack -e 40 -c 3 -i 5 -a 3 -x {7.0 2.0 0 ------- null}
- -t 0.162 -s 7 -d 4 -p ack -e 40 -c 3 -i 5 -a 3 -x {7.0 2.0 0 ------- null}
h -t 0.162 -s 7 -d 4 -p ack -e 40 -c 3 -i 5 -a 3 -x {7.0 2.0 -1 ------- null}
r -t 0.16416 -s 6 -d 4 -p ack -e 40 -c 2 -i 4 -a 2 -x {6.0 1.0 0 ------- null}
+ -t 0.16416 -s 4 -d 3 -p ack -e 40 -c 2 -i 4 -a 2 -x {6.0 1.0 0 ------- null}
- -t 0.16416 -s 4 -d 3 -p ack -e 40 -c 2 -i 4 -a 2 -x {6.0 1.0 0 ------- null}
h -t 0.16416 -s 4 -d 3 -p ack -e 40 -c 2 -i 4 -a 2 -x {6.0 1.0 -1 ------- null}
r -t 0.16648 -s 4 -d 3 -p ack -e 40 -c 1 -i 3 -a 1 -x {5.0 0.0 0 ------- null}
+ -t 0.16648 -s 3 -d 0 -p ack -e 40 -c 1 -i 3 -a 1 -x {5.0 0.0 0 ------- null}
- -t 0.16648 -s 3 -d 0 -p ack -e 40 -c 1 -i 3 -a 1 -x {5.0 0.0 0 ------- null}
h -t 0.16648 -s 3 -d 0 -p ack -e 40 -c 1 -i 3 -a 1 -x {5.0 0.0 -1 ------- null}
r -t 0.17216 -s 7 -d 4 -p ack -e 40 -c 3 -i 5 -a 3 -x {7.0 2.0 0 ------- null}
+ -t 0.17216 -s 4 -d 3 -p ack -e 40 -c 3 -i 5 -a 3 -x {7.0 2.0 0 ------- null}
- -t 0.17216 -s 4 -d 3 -p ack -e 40 -c 3 -i 5 -a 3 -x {7.0 2.0 0 ------- null}
h -t 0.17216 -s 4 -d 3 -p ack -e 40 -c 3 -i 5 -a 3 -x {7.0 2.0 -1 ------- null}
r -t 0.17448 -s 4 -d 3 -p ack -e 40 -c 2 -i 4 -a 2 -x {6.0 1.0 0 ------- null}
+ -t 0.17448 -s 3 -d 1 -p ack -e 40 -c 2 -i 4 -a 2 -x {6.0 1.0 0 ------- null}
- -t 0.17448 -s 3 -d 1 -p ack -e 40 -c 2 -i 4 -a 2 -x {6.0 1.0 0 ------- null}
h -t 0.17448 -s 3 -d 1 -p ack -e 40 -c 2 -i 4 -a 2 -x {6.0 1.0 -1 ------- null}
r -t 0.17664 -s 3 -d 0 -p ack -e 40 -c 1 -i 3 -a 1 -x {5.0 0.0 0 ------- null}
+ -t 0.17664 -s 0 -d 3 -p tcp -e 1000 -c 1 -i 6 -a 1 -x {0.0 5.0 1 ------- null}
- -t 0.17664 -s 0 -d 3 -p tcp -e 1000 -c 1 -i 6 -a 1 -x {0.0 5.0 1 ------- null}
h -t 0.17664 -s 0 -d 3 -p tcp -e 1000 -c 1 -i 6 -a 1 -x {0.0 5.0 -1 ------- null}
r -t 0.18248 -s 4 -d 3 -p ack -e 40 -c 3 -i 5 -a 3 -x {7.0 2.0 0 ------- null}
+ -t 0.18248 -s 3 -d 2 -p ack -e 40 -c 3 -i 5 -a 3 -x {7.0 2.0 0 ------- null}
- -t 0.18248 -s 3 -d 2 -p ack -e 40 -c 3 -i 5 -a 3 -x {7.0 2.0 0 ------- null}
h -t 0.18248 -s 3 -d 2 -p ack -e 40 -c 3 -i 5 -a 3 -x {7.0 2.0 -1 ------- null}
r -t 0.18464 -s 3 -d 1 -p ack -e 40 -c 2 -i 4 -a 2 -x {6.0 1.0 0 ------- null}
+ -t 0.18464 -s 1 -d 3 -p tcp -e 1000 -c 2 -i 7 -a 2 -x {1.0 6.0 1 ------- null}
- -t 0.18464 -s 1 -d 3 -p tcp -e 1000 -c 2 -i 7 -a 2 -x {1.0 6.0 1 ------- null}
h -t 0.18464 -s 1 -d 3 -p tcp -e 1000 -c 2 -i 7 -a 2 -x {1.0 6.0 -1 ------- null}
r -t 0.19064 -s 0 -d 3 -p tcp -e 1000 -c 1 -i 6 -a 1 -x {0.0 5.0 1 ------- null}
+ -t 0.19064 -s 3 -d 4 -p tcp -e 1000 -c 1 -i 6 -a 1 -x {0.0 5.0 1 ------- null}
- -t 0.19064 -s 3 -d 4 -p tcp -e 1000 -c 1 -i 6 -a 1 -x {0.0 5.0 1 ------- null}
h -t 0.19064 -s 3 -d 4 -p tcp -e 1000 -c 1 -i 6 -a 1 -x {0.0 5.0 -1 ------- null}
r -t 0.19264 -s 3 -d 2 -p ack -e 40 -c 3 -i 5 -a 3 -x {7.0 2.0 0 ------- null}
+ -t 0.19264 -s 2 -d 3 -p tcp -e 1000 -c 3 -i 8 -a 3 -x {2.0 7.0 1 ------- null}
- -t 0.19264 -s 2 -d 3 -p tcp -e 1000 -c 3 -i 8 -a 3 -x {2.0 7.0 1 ------- null}
h -t 0.19264 -s 2 -d 3 -p tcp -e 1000 -c 3 -i 8 -a 3 -x {2.0 7.0 -1 ------- null}
r -t 0.19864 -s 1 -d 3 -p tcp -e 1000 -c 2 -i 7 -a 2 -x {1.0 6.0 1 ------- null}
+ -t 0.19864 -s 3 -d 4 -p tcp -e 1000 -c 2 -i 7 -a 2 -x {1.0 6.0 1 ------- null}
- -t 0.19864 -s 3 -d 4 -p tcp -e 1000 -c 2 -i 7 -a 2 -x {1.0 6.0 1 ------- null}
h -t 0.19864 -s 3 -d 4 -p tcp -e 1000 -c 2 -i 7 -a 2 -x {1.0 6.0 -1 ------- null}
r -t 0.20664 -s 2 -d 3 -p tcp -e 1000 -c 3 -i 8 -a 3 -x {2.0 7.0 1 ------- null}
+ -t 0.20664 -s 3 -d 4 -p tcp -e 1000 -c 3 -i 8 -a 3 -x {2.0 7.0 1 ------- null}
- -t 0.20664 -s 3 -d 4 -p tcp -e 1000 -c 3 -i 8 -a 3 -x {2.0 7.0 1 ------- null}
h -t 0.20664 -s 3 -d 4 -p tcp -e 1000 -c 3 -i 8 -a 3 -x {2.0 7.0 -1 ------- null}
r -t 0.20864 -s 3 -d 4 -p tcp -e 1000 -c 1 -i 6 -a 1 -x {0.0 5.0 1 ------- null}
+ -t 0.20864 -s 4 -d 5 -p tcp -e 1000 -c 1 -i 6 -a 1 -x {0.0 5.0 1 ------- null}
- -t 0.20864 -s 4 -d 5 -p tcp -e 1000 -c 1 -i 6 -a 1 -x {0.0 5.0 1 ------- null}
h -t 0.20864 -s 4 -d 5 -p tcp -e 1000 -c 1 -i 6 -a 1 -x {0.0 5.0 -1 ------- null}
r -t 0.21664 -s 3 -d 4 -p tcp -e 1000 -c 2 -i 7 -a 2 -x {1.0 6.0 1 ------- null}
+ -t 0.21664 -s 4 -d 6 -p tcp -e 1000 -c 2 -i 7 -a 2 -x {1.0 6.0 1 ------- null}
- -t 0.21664 -s 4 -d 6 -p tcp -e 1000 -c 2 -i 7 -a 2 -x {1.0 6.0 1 ------- null}
h -t 0.21664 -s 4 -d 6 -p tcp -e 1000 -c 2 -i 7 -a 2 -x {1.0 6.0 -1 ------- null}
r -t 0.22264 -s 4 -d 5 -p tcp -e 1000 -c 1 -i 6 -a 1 -x {0.0 5.0 1 ------- null}
+ -t 0.22264 -s 5 -d 4 -p ack -e 40 -c 1 -i 9 -a 1 -x {5.0 0.0 1 ------- null}
- -t 0.22264 -s 5 -d 4 -p ack -e 40 -c 1 -i 9 -a 1 -x {5.0 0.0 1 ------- null}
h -t 0.22264 -s 5 -d 4 -p ack -e 40 -c 1 -i 9 -a 1 -x {5.0 0.0 -1 ------- null}
r -t 0.22464 -s 3 -d 4 -p tcp -e 1000 -c 3 -i 8 -a 3 -x {2.0 7.0 1 ------- null}
+ -t 0.22464 -s 4 -d 7 -p tcp -e 1000 -c 3 -i 8 -a 3 -x {2.0 7.0 1 ------- null}
- -t 0.22464 -s 4 -d 7 -p tcp -e 1000 -c 3 -i 8 -a 3 -x {2.0 7.0 1 ------- null}
h -t 0.22464 -s 4 -d 7 -p tcp -e 1000 -c 3 -i 8 -a 3 -x {2.0 7.0 -1 ------- null}
r -t 0.23064 -s 4 -d 6 -p tcp -e 1000 -c 2 -i 7 -a 2 -x {1.0 6.0 1 ------- null}
+ -t 0.23064 -s 6 -d 4 -p ack -e 40 -c 2 -i 10 -a 2 -x {6.0 1.0 1 ------- null}
- -t 0.23064 -s 6 -d 4 -p ack -e 40 -c 2 -i 10 -a 2 -x {6.0 1.0 1 ------- null}
h -t 0.23064 -s 6 -d 4 -p ack -e 40 -c 2 -i 10 -a 2 -x {6.0 1.0 -1 ------- null}
r -t 0.2328 -s 5 -d 4 -p ack -e 40 -c 1 -i 9 -a 1 -x {5.0 0.0 1 ------- null}
+ -t 0.2328 -s 4 -d 3 -p ack -e 40 -c 1 -i 9 -a 1 -x {5.0 0.0 1 ------- null}
- -t 0.2328 -s 4 -d 3 -p ack -e 40 -c 1 -i 9 -a 1 -x {5.0 0.0 1 ------- null}
h -t 0.2328 -s 4 -d 3 -p ack -e 40 -c 1 -i 9 -a 1 -x {5.0 0.0 -1 ------- null}
r -t 0.23864 -s 4 -d 7 -p tcp -e 1000 -c 3 -i 8 -a 3 -x {2.0 7.0 1 ------- null}
+ -t 0.23864 -s 7 -d 4 -p ack -e 40 -c 3 -i 11 -a 3 -x {7.0 2.0 1 ------- null}
- -t 0.23864 -s 7 -d 4 -p ack -e 40 -c 3 -i 11 -a 3 -x {7.0 2.0 1 ------- null}
h -t 0.23864 -s 7 -d 4 -p ack -e 40 -c 3 -i 11 -a 3 -x {7.0 2.0 -1 ------- null}
r -t 0.2408 -s 6 -d 4 -p ack -e 40 -c 2 -i 10 -a 2 -x {6.0 1.0 1 ------- null}
+ -t 0.2408 -s 4 -d 3 -p ack -e 40 -c 2 -i 10 -a 2 -x {6.0 1.0 1 ------- null}
- -t 0.2408 -s 4 -d 3 -p ack -e 40 -c 2 -i 10 -a 2 -x {6.0 1.0 1 ------- null}
h -t 0.2408 -s 4 -d 3 -p ack -e 40 -c 2 -i 10 -a 2 -x {6.0 1.0 -1 ------- null}
r -t 0.24312 -s 4 -d 3 -p ack -e 40 -c 1 -i 9 -a 1 -x {5.0 0.0 1 ------- null}
+ -t 0.24312 -s 3 -d 0 -p ack -e 40 -c 1 -i 9 -a 1 -x {5.0 0.0 1 ------- null}
- -t 0.24312 -s 3 -d 0 -p ack -e 40 -c 1 -i 9 -a 1 -x {5.0 0.0 1 ------- null}
h -t 0.24312 -s 3 -d 0 -p ack -e 40 -c 1 -i 9 -a 1 -x {5.0 0.0 -1 ------- null}
r -t 0.2488 -s 7 -d 4 -p ack -e 40 -c 3 -i 11 -a 3 -x {7.0 2.0 1 ------- null}
+ -t 0.2488 -s 4 -d 3 -p ack -e 40 -c 3 -i 11 -a 3 -x {7.0 2.0 1 ------- null}
- -t 0.2488 -s 4 -d 3 -p ack -e 40 -c 3 -i 11 -a 3 -x {7.0 2.0 1 ------- null}
h -t 0.2488 -s 4 -d 3 -p ack -e 40 -c 3 -i 11 -a 3 -x {7.0 2.0 -1 ------- null}
r -t 0.25112 -s 4 -d 3 -p ack -e 40 -c 2 -i 10 -a 2 -x {6.0 1.0 1 ------- null}
+ -t 0.25112 -s 3 -d 1 -p ack -e 40 -c 2 -i 10 -a 2 -x {6.0 1.0 1 ------- null}
- -t 0.25112 -s 3 -d 1 -p ack -e 40 -c 2 -i 10 -a 2 -x {6.0 1.0 1 ------- null}
h -t 0.25112 -s 3 -d 1 -p ack -e 40 -c 2 -i 10 -a 2 -x {6.0 1.0 -1 ------- null}
r -t 0.25328 -s 3 -d 0 -p ack -e 40 -c 1 -i 9 -a 1 -x {5.0 0.0 1 ------- null}
+ -t 0.25328 -s 0 -d 3 -p tcp -e 1000 -c 1 -i 12 -a 1 -x {0.0 5.0 2 ------- null}
- -t 0.25328 -s 0 -d 3 -p tcp -e 1000 -c 1 -i 12 -a 1 -x {0.0 5.0 2 ------- null}
h -t 0.25328 -s 0 -d 3 -p tcp -e 1000 -c 1 -i 12 -a 1 -x {0.0 5.0 -1 ------- null}
+ -t 0.25328 -s 0 -d 3 -p tcp -e 1000 -c 1 -i 13 -a 1 -x {0.0 5.0 3 ------- null}
+ -t 0.25328 -s 0 -d 3 -p tcp -e 1000 -c 1 -i 14 -a 1 -x {0.0 5.0 4 ------- null}
- -t 0.25728 -s 0 -d 3 -p tcp -e 1000 -c 1 -i 13 -a 1 -x {0.0 5.0 3 ------- null}
h -t 0.25728 -s 0 -d 3 -p tcp -e 1000 -c 1 -i 13 -a 1 -x {0.0 5.0 -1 ------- null}
r -t 0.25912 -s 4 -d 3 -p ack -e 40 -c 3 -i 11 -a 3 -x {7.0 2.0 1 ------- null}
+ -t 0.25912 -s 3 -d 2 -p ack -e 40 -c 3 -i 11 -a 3 -x {7.0 2.0 1 ------- null}
- -t 0.25912 -s 3 -d 2 -p ack -e 40 -c 3 -i 11 -a 3 -x {7.0 2.0 1 ------- null}
h -t 0.25912 -s 3 -d 2 -p ack -e 40 -c 3 -i 11 -a 3 -x {7.0 2.0 -1 ------- null}
r -t 0.26128 -s 3 -d 1 -p ack -e 40 -c 2 -i 10 -a 2 -x {6.0 1.0 1 ------- null}
+ -t 0.26128 -s 1 -d 3 -p tcp -e 1000 -c 2 -i 15 -a 2 -x {1.0 6.0 2 ------- null}
- -t 0.26128 -s 1 -d 3 -p tcp -e 1000 -c 2 -i 15 -a 2 -x {1.0 6.0 2 ------- null}
h -t 0.26128 -s 1 -d 3 -p tcp -e 1000 -c 2 -i 15 -a 2 -x {1.0 6.0 -1 ------- null}
+ -t 0.26128 -s 1 -d 3 -p tcp -e 1000 -c 2 -i 16 -a 2 -x {1.0 6.0 3 ------- null}
+ -t 0.26128 -s 1 -d 3 -p tcp -e 1000 -c 2 -i 17 -a 2 -x {1.0 6.0 4 ------- null}
- -t 0.26128 -s 0 -d 3 -p tcp -e 1000 -c 1 -i 14 -a 1 -x {0.0 5.0 4 ------- null}
h -t 0.26128 -s 0 -d 3 -p tcp -e 1000 -c 1 -i 14 -a 1 -x {0.0 5.0 -1 ------- null}
- -t 0.26528 -s 1 -d 3 -p tcp -e 1000 -c 2 -i 16 -a 2 -x {1.0 6.0 3 ------- null}
h -t 0.26528 -s 1 -d 3 -p tcp -e 1000 -c 2 -i 16 -a 2 -x {1.0 6.0 -1 ------- null}
r -t 0.26728 -s 0 -d 3 -p tcp -e 1000 -c 1 -i 12 -a 1 -x {0.0 5.0 2 ------- null}
+ -t 0.26728 -s 3 -d 4 -p tcp -e 1000 -c 1 -i 12 -a 1 -x {0.0 5.0 2 ------- null}
- -t 0.26728 -s 3 -d 4 -p tcp -e 1000 -c 1 -i 12 -a 1 -x {0.0 5.0 2 ------- null}
h -t 0.26728 -s 3 -d 4 -p tcp -e 1000 -c 1 -i 12 -a 1 -x {0.0 5.0 -1 ------- null}
r -t 0.26928 -s 3 -d 2 -p ack -e 40 -c 3 -i 11 -a 3 -x {7.0 2.0 1 ------- null}
+ -t 0.26928 -s 2 -d 3 -p tcp -e 1000 -c 3 -i 18 -a 3 -x {2.0 7.0 2 ------- null}
- -t 0.26928 -s 2 -d 3 -p tcp -e 1000 -c 3 -i 18 -a 3 -x {2.0 7.0 2 ------- null}
h -t 0.26928 -s 2 -d 3 -p tcp -e 1000 -c 3 -i 18 -a 3 -x {2.0 7.0 -1 ------- null}
+ -t 0.26928 -s 2 -d 3 -p tcp -e 1000 -c 3 -i 19 -a 3 -x {2.0 7.0 3 ------- null}
+ -t 0.26928 -s 2 -d 3 -p tcp -e 1000 -c 3 -i 20 -a 3 -x {2.0 7.0 4 ------- null}
- -t 0.26928 -s 1 -d 3 -p tcp -e 1000 -c 2 -i 17 -a 2 -x {1.0 6.0 4 ------- null}
h -t 0.26928 -s 1 -d 3 -p tcp -e 1000 -c 2 -i 17 -a 2 -x {1.0 6.0 -1 ------- null}
r -t 0.27128 -s 0 -d 3 -p tcp -e 1000 -c 1 -i 13 -a 1 -x {0.0 5.0 3 ------- null}
+ -t 0.27128 -s 3 -d 4 -p tcp -e 1000 -c 1 -i 13 -a 1 -x {0.0 5.0 3 ------- null}
- -t 0.27328 -s 2 -d 3 -p tcp -e 1000 -c 3 -i 19 -a 3 -x {2.0 7.0 3 ------- null}
h -t 0.27328 -s 2 -d 3 -p tcp -e 1000 -c 3 -i 19 -a 3 -x {2.0 7.0 -1 ------- null}
r -t 0.27528 -s 1 -d 3 -p tcp -e 1000 -c 2 -i 15 -a 2 -x {1.0 6.0 2 ------- null}
+ -t 0.27528 -s 3 -d 4 -p tcp -e 1000 -c 2 -i 15 -a 2 -x {1.0 6.0 2 ------- null}
r -t 0.27528 -s 0 -d 3 -p tcp -e 1000 -c 1 -i 14 -a 1 -x {0.0 5.0 4 ------- null}
+ -t 0.27528 -s 3 -d 4 -p tcp -e 1000 -c 1 -i 14 -a 1 -x {0.0 5.0 4 ------- null}
- -t 0.27528 -s 3 -d 4 -p tcp -e 1000 -c 1 -i 13 -a 1 -x {0.0 5.0 3 ------- null}
h -t 0.27528 -s 3 -d 4 -p tcp -e 1000 -c 1 -i 13 -a 1 -x {0.0 5.0 -1 ------- null}
- -t 0.27728 -s 2 -d 3 -p tcp -e 1000 -c 3 -i 20 -a 3 -x {2.0 7.0 4 ------- null}
h -t 0.27728 -s 2 -d 3 -p tcp -e 1000 -c 3 -i 20 -a 3 -x {2.0 7.0 -1 ------- null}
r -t 0.27928 -s 1 -d 3 -p tcp -e 1000 -c 2 -i 16 -a 2 -x {1.0 6.0 3 ------- null}
+ -t 0.27928 -s 3 -d 4 -p tcp -e 1000 -c 2 -i 16 -a 2 -x {1.0 6.0 3 ------- null}
r -t 0.28328 -s 2 -d 3 -p tcp -e 1000 -c 3 -i 18 -a 3 -x {2.0 7.0 2 ------- null}
+ -t 0.28328 -s 3 -d 4 -p tcp -e 1000 -c 3 -i 18 -a 3 -x {2.0 7.0 2 ------- null}
r -t 0.28328 -s 1 -d 3 -p tcp -e 1000 -c 2 -i 17 -a 2 -x {1.0 6.0 4 ------- null}
+ -t 0.28328 -s 3 -d 4 -p tcp -e 1000 -c 2 -i 17 -a 2 -x {1.0 6.0 4 ------- null}
- -t 0.28328 -s 3 -d 4 -p tcp -e 1000 -c 2 -i 15 -a 2 -x {1.0 6.0 2 ------- null}
h -t 0.28328 -s 3 -d 4 -p tcp -e 1000 -c 2 -i 15 -a 2 -x {1.0 6.0 -1 ------- null}
r -t 0.28528 -s 3 -d 4 -p tcp -e 1000 -c 1 -i 12 -a 1 -x {0.0 5.0 2 ------- null}
+ -t 0.28528 -s 4 -d 5 -p tcp -e 1000 -c 1 -i 12 -a 1 -x {0.0 5.0 2 ------- null}
- -t 0.28528 -s 4 -d 5 -p tcp -e 1000 -c 1 -i 12 -a 1 -x {0.0 5.0 2 ------- null}
h -t 0.28528 -s 4 -d 5 -p tcp -e 1000 -c 1 -i 12 -a 1 -x {0.0 5.0 -1 ------- null}
r -t 0.28728 -s 2 -d 3 -p tcp -e 1000 -c 3 -i 19 -a 3 -x {2.0 7.0 3 ------- null}
+ -t 0.28728 -s 3 -d 4 -p tcp -e 1000 -c 3 -i 19 -a 3 -x {2.0 7.0 3 ------- null}
r -t 0.29128 -s 2 -d 3 -p tcp -e 1000 -c 3 -i 20 -a 3 -x {2.0 7.0 4 ------- null}
+ -t 0.29128 -s 3 -d 4 -p tcp -e 1000 -c 3 -i 20 -a 3 -x {2.0 7.0 4 ------- null}
- -t 0.29128 -s 3 -d 4 -p tcp -e 1000 -c 1 -i 14 -a 1 -x {0.0 5.0 4 ------- null}
h -t 0.29128 -s 3 -d 4 -p tcp -e 1000 -c 1 -i 14 -a 1 -x {0.0 5.0 -1 ------- null}
r -t 0.29328 -s 3 -d 4 -p tcp -e 1000 -c 1 -i 13 -a 1 -x {0.0 5.0 3 ------- null}
+ -t 0.29328 -s 4 -d 5 -p tcp -e 1000 -c 1 -i 13 -a 1 -x {0.0 5.0 3 ------- null}
- -t 0.29328 -s 4 -d 5 -p tcp -e 1000 -c 1 -i 13 -a 1 -x {0.0 5.0 3 ------- null}
h -t 0.29328 -s 4 -d 5 -p tcp -e 1000 -c 1 -i 13 -a 1 -x {0.0 5.0 -1 ------- null}
r -t 0.29928 -s 4 -d 5 -p tcp -e 1000 -c 1 -i 12 -a 1 -x {0.0 5.0 2 ------- null}
+ -t 0.29928 -s 5 -d 4 -p ack -e 40 -c 1 -i 21 -a 1 -x {5.0 0.0 2 ------- null}
- -t 0.29928 -s 5 -d 4 -p ack -e 40 -c 1 -i 21 -a 1 -x {5.0 0.0 2 ------- null}
h -t 0.29928 -s 5 -d 4 -p ack -e 40 -c 1 -i 21 -a 1 -x {5.0 0.0 -1 ------- null}
- -t 0.29928 -s 3 -d 4 -p tcp -e 1000 -c 2 -i 16 -a 2 -x {1.0 6.0 3 ------- null}
h -t 0.29928 -s 3 -d 4 -p tcp -e 1000 -c 2 -i 16 -a 2 -x {1.0 6.0 -1 ------- null}
r -t 0.30128 -s 3 -d 4 -p tcp -e 1000 -c 2 -i 15 -a 2 -x {1.0 6.0 2 ------- null}
+ -t 0.30128 -s 4 -d 6 -p tcp -e 1000 -c 2 -i 15 -a 2 -x {1.0 6.0 2 ------- null}
- -t 0.30128 -s 4 -d 6 -p tcp -e 1000 -c 2 -i 15 -a 2 -x {1.0 6.0 2 ------- null}
h -t 0.30128 -s 4 -d 6 -p tcp -e 1000 -c 2 -i 15 -a 2 -x {1.0 6.0 -1 ------- null}
r -t 0.30728 -s 4 -d 5 -p tcp -e 1000 -c 1 -i 13 -a 1 -x {0.0 5.0 3 ------- null}
+ -t 0.30728 -s 5 -d 4 -p ack -e 40 -c 1 -i 22 -a 1 -x {5.0 0.0 3 ------- null}
- -t 0.30728 -s 5 -d 4 -p ack -e 40 -c 1 -i 22 -a 1 -x {5.0 0.0 3 ------- null}
h -t 0.30728 -s 5 -d 4 -p ack -e 40 -c 1 -i 22 -a 1 -x {5.0 0.0 -1 ------- null}
- -t 0.30728 -s 3 -d 4 -p tcp -e 1000 -c 3 -i 18 -a 3 -x {2.0 7.0 2 ------- null}
h -t 0.30728 -s 3 -d 4 -p tcp -e 1000 -c 3 -i 18 -a 3 -x {2.0 7.0 -1 ------- null}
r -t 0.30928 -s 3 -d 4 -p tcp -e 1000 -c 1 -i 14 -a 1 -x {0.0 5.0 4 ------- null}
+ -t 0.30928 -s 4 -d 5 -p tcp -e 1000 -c 1 -i 14 -a 1 -x {0.0 5.0 4 ------- null}
- -t 0.30928 -s 4 -d 5 -p tcp -e 1000 -c 1 -i 14 -a 1 -x {0.0 5.0 4 ------- null}
h -t 0.30928 -s 4 -d 5 -p tcp -e 1000 -c 1 -i 14 -a 1 -x {0.0 5.0 -1 ------- null}
r -t 0.30944 -s 5 -d 4 -p ack -e 40 -c 1 -i 21 -a 1 -x {5.0 0.0 2 ------- null}
+ -t 0.30944 -s 4 -d 3 -p ack -e 40 -c 1 -i 21 -a 1 -x {5.0 0.0 2 ------- null}
- -t 0.30944 -s 4 -d 3 -p ack -e 40 -c 1 -i 21 -a 1 -x {5.0 0.0 2 ------- null}
h -t 0.30944 -s 4 -d 3 -p ack -e 40 -c 1 -i 21 -a 1 -x {5.0 0.0 -1 ------- null}
r -t 0.31528 -s 4 -d 6 -p tcp -e 1000 -c 2 -i 15 -a 2 -x {1.0 6.0 2 ------- null}
+ -t 0.31528 -s 6 -d 4 -p ack -e 40 -c 2 -i 23 -a 2 -x {6.0 1.0 2 ------- null}
- -t 0.31528 -s 6 -d 4 -p ack -e 40 -c 2 -i 23 -a 2 -x {6.0 1.0 2 ------- null}
h -t 0.31528 -s 6 -d 4 -p ack -e 40 -c 2 -i 23 -a 2 -x {6.0 1.0 -1 ------- null}
- -t 0.31528 -s 3 -d 4 -p tcp -e 1000 -c 2 -i 17 -a 2 -x {1.0 6.0 4 ------- null}
h -t 0.31528 -s 3 -d 4 -p tcp -e 1000 -c 2 -i 17 -a 2 -x {1.0 6.0 -1 ------- null}
r -t 0.31728 -s 3 -d 4 -p tcp -e 1000 -c 2 -i 16 -a 2 -x {1.0 6.0 3 ------- null}
+ -t 0.31728 -s 4 -d 6 -p tcp -e 1000 -c 2 -i 16 -a 2 -x {1.0 6.0 3 ------- null}
- -t 0.31728 -s 4 -d 6 -p tcp -e 1000 -c 2 -i 16 -a 2 -x {1.0 6.0 3 ------- null}
h -t 0.31728 -s 4 -d 6 -p tcp -e 1000 -c 2 -i 16 -a 2 -x {1.0 6.0 -1 ------- null}
r -t 0.31744 -s 5 -d 4 -p ack -e 40 -c 1 -i 22 -a 1 -x {5.0 0.0 3 ------- null}
+ -t 0.31744 -s 4 -d 3 -p ack -e 40 -c 1 -i 22 -a 1 -x {5.0 0.0 3 ------- null}
- -t 0.31744 -s 4 -d 3 -p ack -e 40 -c 1 -i 22 -a 1 -x {5.0 0.0 3 ------- null}
h -t 0.31744 -s 4 -d 3 -p ack -e 40 -c 1 -i 22 -a 1 -x {5.0 0.0 -1 ------- null}
r -t 0.31976 -s 4 -d 3 -p ack -e 40 -c 1 -i 21 -a 1 -x {5.0 0.0 2 ------- null}
+ -t 0.31976 -s 3 -d 0 -p ack -e 40 -c 1 -i 21 -a 1 -x {5.0 0.0 2 ------- null}
- -t 0.31976 -s 3 -d 0 -p ack -e 40 -c 1 -i 21 -a 1 -x {5.0 0.0 2 ------- null}
h -t 0.31976 -s 3 -d 0 -p ack -e 40 -c 1 -i 21 -a 1 -x {5.0 0.0 -1 ------- null}
r -t 0.32328 -s 4 -d 5 -p tcp -e 1000 -c 1 -i 14 -a 1 -x {0.0 5.0 4 ------- null}
+ -t 0.32328 -s 5 -d 4 -p ack -e 40 -c 1 -i 24 -a 1 -x {5.0 0.0 4 ------- null}
- -t 0.32328 -s 5 -d 4 -p ack -e 40 -c 1 -i 24 -a 1 -x {5.0 0.0 4 ------- null}
h -t 0.32328 -s 5 -d 4 -p ack -e 40 -c 1 -i 24 -a 1 -x {5.0 0.0 -1 ------- null}
- -t 0.32328 -s 3 -d 4 -p tcp -e 1000 -c 3 -i 19 -a 3 -x {2.0 7.0 3 ------- null}
h -t 0.32328 -s 3 -d 4 -p tcp -e 1000 -c 3 -i 19 -a 3 -x {2.0 7.0 -1 ------- null}
r -t 0.32528 -s 3 -d 4 -p tcp -e 1000 -c 3 -i 18 -a 3 -x {2.0 7.0 2 ------- null}
+ -t 0.32528 -s 4 -d 7 -p tcp -e 1000 -c 3 -i 18 -a 3 -x {2.0 7.0 2 ------- null}
- -t 0.32528 -s 4 -d 7 -p tcp -e 1000 -c 3 -i 18 -a 3 -x {2.0 7.0 2 ------- null}
h -t 0.32528 -s 4 -d 7 -p tcp -e 1000 -c 3 -i 18 -a 3 -x {2.0 7.0 -1 ------- null}
r -t 0.32544 -s 6 -d 4 -p ack -e 40 -c 2 -i 23 -a 2 -x {6.0 1.0 2 ------- null}
+ -t 0.32544 -s 4 -d 3 -p ack -e 40 -c 2 -i 23 -a 2 -x {6.0 1.0 2 ------- null}
- -t 0.32544 -s 4 -d 3 -p ack -e 40 -c 2 -i 23 -a 2 -x {6.0 1.0 2 ------- null}
h -t 0.32544 -s 4 -d 3 -p ack -e 40 -c 2 -i 23 -a 2 -x {6.0 1.0 -1 ------- null}
r -t 0.32776 -s 4 -d 3 -p ack -e 40 -c 1 -i 22 -a 1 -x {5.0 0.0 3 ------- null}
+ -t 0.32776 -s 3 -d 0 -p ack -e 40 -c 1 -i 22 -a 1 -x {5.0 0.0 3 ------- null}
- -t 0.32776 -s 3 -d 0 -p ack -e 40 -c 1 -i 22 -a 1 -x {5.0 0.0 3 ------- null}
h -t 0.32776 -s 3 -d 0 -p ack -e 40 -c 1 -i 22 -a 1 -x {5.0 0.0 -1 ------- null}
r -t 0.32992 -s 3 -d 0 -p ack -e 40 -c 1 -i 21 -a 1 -x {5.0 0.0 2 ------- null}
+ -t 0.32992 -s 0 -d 3 -p tcp -e 1000 -c 1 -i 25 -a 1 -x {0.0 5.0 5 ------- null}
- -t 0.32992 -s 0 -d 3 -p tcp -e 1000 -c 1 -i 25 -a 1 -x {0.0 5.0 5 ------- null}
h -t 0.32992 -s 0 -d 3 -p tcp -e 1000 -c 1 -i 25 -a 1 -x {0.0 5.0 -1 ------- null}
r -t 0.33128 -s 4 -d 6 -p tcp -e 1000 -c 2 -i 16 -a 2 -x {1.0 6.0 3 ------- null}
+ -t 0.33128 -s 6 -d 4 -p ack -e 40 -c 2 -i 26 -a 2 -x {6.0 1.0 3 ------- null}
- -t 0.33128 -s 6 -d 4 -p ack -e 40 -c 2 -i 26 -a 2 -x {6.0 1.0 3 ------- null}
h -t 0.33128 -s 6 -d 4 -p ack -e 40 -c 2 -i 26 -a 2 -x {6.0 1.0 -1 ------- null}
- -t 0.33128 -s 3 -d 4 -p tcp -e 1000 -c 3 -i 20 -a 3 -x {2.0 7.0 4 ------- null}
h -t 0.33128 -s 3 -d 4 -p tcp -e 1000 -c 3 -i 20 -a 3 -x {2.0 7.0 -1 ------- null}
r -t 0.33328 -s 3 -d 4 -p tcp -e 1000 -c 2 -i 17 -a 2 -x {1.0 6.0 4 ------- null}
+ -t 0.33328 -s 4 -d 6 -p tcp -e 1000 -c 2 -i 17 -a 2 -x {1.0 6.0 4 ------- null}
- -t 0.33328 -s 4 -d 6 -p tcp -e 1000 -c 2 -i 17 -a 2 -x {1.0 6.0 4 ------- null}
h -t 0.33328 -s 4 -d 6 -p tcp -e 1000 -c 2 -i 17 -a 2 -x {1.0 6.0 -1 ------- null}
r -t 0.33344 -s 5 -d 4 -p ack -e 40 -c 1 -i 24 -a 1 -x {5.0 0.0 4 ------- null}
+ -t 0.33344 -s 4 -d 3 -p ack -e 40 -c 1 -i 24 -a 1 -x {5.0 0.0 4 ------- null}
- -t 0.33344 -s 4 -d 3 -p ack -e 40 -c 1 -i 24 -a 1 -x {5.0 0.0 4 ------- null}
h -t 0.33344 -s 4 -d 3 -p ack -e 40 -c 1 -i 24 -a 1 -x {5.0 0.0 -1 ------- null}
r -t 0.33576 -s 4 -d 3 -p ack -e 40 -c 2 -i 23 -a 2 -x {6.0 1.0 2 ------- null}
+ -t 0.33576 -s 3 -d 1 -p ack -e 40 -c 2 -i 23 -a 2 -x {6.0 1.0 2 ------- null}
- -t 0.33576 -s 3 -d 1 -p ack -e 40 -c 2 -i 23 -a 2 -x {6.0 1.0 2 ------- null}
h -t 0.33576 -s 3 -d 1 -p ack -e 40 -c 2 -i 23 -a 2 -x {6.0 1.0 -1 ------- null}
r -t 0.33792 -s 3 -d 0 -p ack -e 40 -c 1 -i 22 -a 1 -x {5.0 0.0 3 ------- null}
+ -t 0.33792 -s 0 -d 3 -p tcp -e 1000 -c 1 -i 27 -a 1 -x {0.0 5.0 6 ------- null}
- -t 0.33792 -s 0 -d 3 -p tcp -e 1000 -c 1 -i 27 -a 1 -x {0.0 5.0 6 ------- null}
h -t 0.33792 -s 0 -d 3 -p tcp -e 1000 -c 1 -i 27 -a 1 -x {0.0 5.0 -1 ------- null}
r -t 0.33928 -s 4 -d 7 -p tcp -e 1000 -c 3 -i 18 -a 3 -x {2.0 7.0 2 ------- null}
+ -t 0.33928 -s 7 -d 4 -p ack -e 40 -c 3 -i 28 -a 3 -x {7.0 2.0 2 ------- null}
- -t 0.33928 -s 7 -d 4 -p ack -e 40 -c 3 -i 28 -a 3 -x {7.0 2.0 2 ------- null}
h -t 0.33928 -s 7 -d 4 -p ack -e 40 -c 3 -i 28 -a 3 -x {7.0 2.0 -1 ------- null}
r -t 0.34128 -s 3 -d 4 -p tcp -e 1000 -c 3 -i 19 -a 3 -x {2.0 7.0 3 ------- null}
+ -t 0.34128 -s 4 -d 7 -p tcp -e 1000 -c 3 -i 19 -a 3 -x {2.0 7.0 3 ------- null}
- -t 0.34128 -s 4 -d 7 -p tcp -e 1000 -c 3 -i 19 -a 3 -x {2.0 7.0 3 ------- null}
h -t 0.34128 -s 4 -d 7 -p tcp -e 1000 -c 3 -i 19 -a 3 -x {2.0 7.0 -1 ------- null}
r -t 0.34144 -s 6 -d 4 -p ack -e 40 -c 2 -i 26 -a 2 -x {6.0 1.0 3 ------- null}
+ -t 0.34144 -s 4 -d 3 -p ack -e 40 -c 2 -i 26 -a 2 -x {6.0 1.0 3 ------- null}
- -t 0.34144 -s 4 -d 3 -p ack -e 40 -c 2 -i 26 -a 2 -x {6.0 1.0 3 ------- null}
h -t 0.34144 -s 4 -d 3 -p ack -e 40 -c 2 -i 26 -a 2 -x {6.0 1.0 -1 ------- null}
r -t 0.34376 -s 4 -d 3 -p ack -e 40 -c 1 -i 24 -a 1 -x {5.0 0.0 4 ------- null}
+ -t 0.34376 -s 3 -d 0 -p ack -e 40 -c 1 -i 24 -a 1 -x {5.0 0.0 4 ------- null}
- -t 0.34376 -s 3 -d 0 -p ack -e 40 -c 1 -i 24 -a 1 -x {5.0 0.0 4 ------- null}
h -t 0.34376 -s 3 -d 0 -p ack -e 40 -c 1 -i 24 -a 1 -x {5.0 0.0 -1 ------- null}
r -t 0.34392 -s 0 -d 3 -p tcp -e 1000 -c 1 -i 25 -a 1 -x {0.0 5.0 5 ------- null}
+ -t 0.34392 -s 3 -d 4 -p tcp -e 1000 -c 1 -i 25 -a 1 -x {0.0 5.0 5 ------- null}
- -t 0.34392 -s 3 -d 4 -p tcp -e 1000 -c 1 -i 25 -a 1 -x {0.0 5.0 5 ------- null}
h -t 0.34392 -s 3 -d 4 -p tcp -e 1000 -c 1 -i 25 -a 1 -x {0.0 5.0 -1 ------- null}
r -t 0.34592 -s 3 -d 1 -p ack -e 40 -c 2 -i 23 -a 2 -x {6.0 1.0 2 ------- null}
+ -t 0.34592 -s 1 -d 3 -p tcp -e 1000 -c 2 -i 29 -a 2 -x {1.0 6.0 5 ------- null}
- -t 0.34592 -s 1 -d 3 -p tcp -e 1000 -c 2 -i 29 -a 2 -x {1.0 6.0 5 ------- null}
h -t 0.34592 -s 1 -d 3 -p tcp -e 1000 -c 2 -i 29 -a 2 -x {1.0 6.0 -1 ------- null}
r -t 0.34728 -s 4 -d 6 -p tcp -e 1000 -c 2 -i 17 -a 2 -x {1.0 6.0 4 ------- null}
+ -t 0.34728 -s 6 -d 4 -p ack -e 40 -c 2 -i 30 -a 2 -x {6.0 1.0 4 ------- null}
- -t 0.34728 -s 6 -d 4 -p ack -e 40 -c 2 -i 30 -a 2 -x {6.0 1.0 4 ------- null}
h -t 0.34728 -s 6 -d 4 -p ack -e 40 -c 2 -i 30 -a 2 -x {6.0 1.0 -1 ------- null}
r -t 0.34928 -s 3 -d 4 -p tcp -e 1000 -c 3 -i 20 -a 3 -x {2.0 7.0 4 ------- null}
+ -t 0.34928 -s 4 -d 7 -p tcp -e 1000 -c 3 -i 20 -a 3 -x {2.0 7.0 4 ------- null}
- -t 0.34928 -s 4 -d 7 -p tcp -e 1000 -c 3 -i 20 -a 3 -x {2.0 7.0 4 ------- null}
h -t 0.34928 -s 4 -d 7 -p tcp -e 1000 -c 3 -i 20 -a 3 -x {2.0 7.0 -1 ------- null}
r -t 0.34944 -s 7 -d 4 -p ack -e 40 -c 3 -i 28 -a 3 -x {7.0 2.0 2 ------- null}
+ -t 0.34944 -s 4 -d 3 -p ack -e 40 -c 3 -i 28 -a 3 -x {7.0 2.0 2 ------- null}
- -t 0.34944 -s 4 -d 3 -p ack -e 40 -c 3 -i 28 -a 3 -x {7.0 2.0 2 ------- null}
h -t 0.34944 -s 4 -d 3 -p ack -e 40 -c 3 -i 28 -a 3 -x {7.0 2.0 -1 ------- null}
r -t 0.35176 -s 4 -d 3 -p ack -e 40 -c 2 -i 26 -a 2 -x {6.0 1.0 3 ------- null}
+ -t 0.35176 -s 3 -d 1 -p ack -e 40 -c 2 -i 26 -a 2 -x {6.0 1.0 3 ------- null}
- -t 0.35176 -s 3 -d 1 -p ack -e 40 -c 2 -i 26 -a 2 -x {6.0 1.0 3 ------- null}
h -t 0.35176 -s 3 -d 1 -p ack -e 40 -c 2 -i 26 -a 2 -x {6.0 1.0 -1 ------- null}
r -t 0.35192 -s 0 -d 3 -p tcp -e 1000 -c 1 -i 27 -a 1 -x {0.0 5.0 6 ------- null}
+ -t 0.35192 -s 3 -d 4 -p tcp -e 1000 -c 1 -i 27 -a 1 -x {0.0 5.0 6 ------- null}
- -t 0.35192 -s 3 -d 4 -p tcp -e 1000 -c 1 -i 27 -a 1 -x {0.0 5.0 6 ------- null}
h -t 0.35192 -s 3 -d 4 -p tcp -e 1000 -c 1 -i 27 -a 1 -x {0.0 5.0 -1 ------- null}
r -t 0.35392 -s 3 -d 0 -p ack -e 40 -c 1 -i 24 -a 1 -x {5.0 0.0 4 ------- null}
+ -t 0.35392 -s 0 -d 3 -p tcp -e 1000 -c 1 -i 31 -a 1 -x {0.0 5.0 7 ------- null}
- -t 0.35392 -s 0 -d 3 -p tcp -e 1000 -c 1 -i 31 -a 1 -x {0.0 5.0 7 ------- null}
h -t 0.35392 -s 0 -d 3 -p tcp -e 1000 -c 1 -i 31 -a 1 -x {0.0 5.0 -1 ------- null}
r -t 0.35528 -s 4 -d 7 -p tcp -e 1000 -c 3 -i 19 -a 3 -x {2.0 7.0 3 ------- null}
+ -t 0.35528 -s 7 -d 4 -p ack -e 40 -c 3 -i 32 -a 3 -x {7.0 2.0 3 ------- null}
- -t 0.35528 -s 7 -d 4 -p ack -e 40 -c 3 -i 32 -a 3 -x {7.0 2.0 3 ------- null}
h -t 0.35528 -s 7 -d 4 -p ack -e 40 -c 3 -i 32 -a 3 -x {7.0 2.0 -1 ------- null}
r -t 0.35744 -s 6 -d 4 -p ack -e 40 -c 2 -i 30 -a 2 -x {6.0 1.0 4 ------- null}
+ -t 0.35744 -s 4 -d 3 -p ack -e 40 -c 2 -i 30 -a 2 -x {6.0 1.0 4 ------- null}
- -t 0.35744 -s 4 -d 3 -p ack -e 40 -c 2 -i 30 -a 2 -x {6.0 1.0 4 ------- null}
h -t 0.35744 -s 4 -d 3 -p ack -e 40 -c 2 -i 30 -a 2 -x {6.0 1.0 -1 ------- null}
r -t 0.35976 -s 4 -d 3 -p ack -e 40 -c 3 -i 28 -a 3 -x {7.0 2.0 2 ------- null}
+ -t 0.35976 -s 3 -d 2 -p ack -e 40 -c 3 -i 28 -a 3 -x {7.0 2.0 2 ------- null}
- -t 0.35976 -s 3 -d 2 -p ack -e 40 -c 3 -i 28 -a 3 -x {7.0 2.0 2 ------- null}
h -t 0.35976 -s 3 -d 2 -p ack -e 40 -c 3 -i 28 -a 3 -x {7.0 2.0 -1 ------- null}
r -t 0.35992 -s 1 -d 3 -p tcp -e 1000 -c 2 -i 29 -a 2 -x {1.0 6.0 5 ------- null}
+ -t 0.35992 -s 3 -d 4 -p tcp -e 1000 -c 2 -i 29 -a 2 -x {1.0 6.0 5 ------- null}
- -t 0.35992 -s 3 -d 4 -p tcp -e 1000 -c 2 -i 29 -a 2 -x {1.0 6.0 5 ------- null}
h -t 0.35992 -s 3 -d 4 -p tcp -e 1000 -c 2 -i 29 -a 2 -x {1.0 6.0 -1 ------- null}
r -t 0.36192 -s 3 -d 4 -p tcp -e 1000 -c 1 -i 25 -a 1 -x {0.0 5.0 5 ------- null}
+ -t 0.36192 -s 4 -d 5 -p tcp -e 1000 -c 1 -i 25 -a 1 -x {0.0 5.0 5 ------- null}
- -t 0.36192 -s 4 -d 5 -p tcp -e 1000 -c 1 -i 25 -a 1 -x {0.0 5.0 5 ------- null}
h -t 0.36192 -s 4 -d 5 -p tcp -e 1000 -c 1 -i 25 -a 1 -x {0.0 5.0 -1 ------- null}
r -t 0.36192 -s 3 -d 1 -p ack -e 40 -c 2 -i 26 -a 2 -x {6.0 1.0 3 ------- null}