+ 0.1 0 3 cbr 1000 ------- 1 0.0 5.0 0 0
- 0.1 0 3 cbr 1000 ------- 1 0.0 5.0 0 0
+ 0.1 1 3 cbr 210 ------- 2 1.0 6.0 0 1
- 0.1 1 3 cbr 210 ------- 2 1.0 6.0 0 1
+ 0.1 2 3 cbr 210 ------- 3 2.0 7.0 0 2
- 0.1 2 3 cbr 210 ------- 3 2.0 7.0 0 2
+ 0.10375 1 3 cbr 210 ------- 2 1.0 6.0 1 3
- 0.10375 1 3 cbr 210 ------- 2 1.0 6.0 1 3
+ 0.10375 2 3 cbr 210 ------- 3 2.0 7.0 1 4
- 0.10375 2 3 cbr 210 ------- 3 2.0 7.0 1 4
+ 0.105 0 3 cbr 1000 ------- 1 0.0 5.0 1 5
- 0.105 0 3 cbr 1000 ------- 1 0.0 5.0 1 5
+ 0.1075 1 3 cbr 210 ------- 2 1.0 6.0 2 6
- 0.1075 1 3 cbr 210 ------- 2 1.0 6.0 2 6
+ 0.1075 2 3 cbr 210 ------- 3 2.0 7.0 2 7
- 0.1075 2 3 cbr 210 ------- 3 2.0 7.0 2 7
+ 0.11 0 3 cbr 1000 ------- 1 0.0 5.0 2 8
- 0.11 0 3 cbr 1000 ------- 1 0.0 5.0 2 8
r 0.110084 1 3 cbr 210 ------- 2 1.0 6.0 0 1
+ 0.110084 3 4 cbr 210 ------- 2 1.0 6.0 0 1
- 0.110084 3 4 cbr 210 ------- 2 1.0 6.0 0 1
r 0.110084 2 3 cbr 210 ------- 3 2.0 7.0 0 2
+ 0.110084 3 4 cbr 210 ------- 3 2.0 7.0 0 2
r 0.1104 0 3 cbr 1000 ------- 1 0.0 5.0 0 0
+ 0.1104 3 4 cbr 1000 ------- 1 0.0 5.0 0 0
+ 0.11125 1 3 cbr 210 ------- 2 1.0 6.0 3 9
- 0.11125 1 3 cbr 210 ------- 2 1.0 6.0 3 9
+ 0.11125 2 3 cbr 210 ------- 3 2.0 7.0 3 10
- 0.11125 2 3 cbr 210 ------- 3 2.0 7.0 3 10
- 0.111764 3 4 cbr 210 ------- 3 2.0 7.0 0 2
- 0.113444 3 4 cbr 1000 ------- 1 0.0 5.0 0 0
r 0.113834 1 3 cbr 210 ------- 2 1.0 6.0 1 3
+ 0.113834 3 4 cbr 210 ------- 2 1.0 6.0 1 3
r 0.113834 2 3 cbr 210 ------- 3 2.0 7.0 1 4
+ 0.113834 3 4 cbr 210 ------- 3 2.0 7.0 1 4
+ 0.115 0 3 cbr 1000 ------- 1 0.0 5.0 3 11
- 0.115 0 3 cbr 1000 ------- 1 0.0 5.0 3 11
+ 0.115 1 3 cbr 210 ------- 2 1.0 6.0 4 12
- 0.115 1 3 cbr 210 ------- 2 1.0 6.0 4 12
+ 0.115 2 3 cbr 210 ------- 3 2.0 7.0 4 13
- 0.115 2 3 cbr 210 ------- 3 2.0 7.0 4 13
r 0.1154 0 3 cbr 1000 ------- 1 0.0 5.0 1 5
+ 0.1154 3 4 cbr 1000 ------- 1 0.0 5.0 1 5
r 0.117584 1 3 cbr 210 ------- 2 1.0 6.0 2 6
+ 0.117584 3 4 cbr 210 ------- 2 1.0 6.0 2 6
r 0.117584 2 3 cbr 210 ------- 3 2.0 7.0 2 7
+ 0.117584 3 4 cbr 210 ------- 3 2.0 7.0 2 7
+ 0.11875 1 3 cbr 210 ------- 2 1.0 6.0 5 14
- 0.11875 1 3 cbr 210 ------- 2 1.0 6.0 5 14
+ 0.11875 2 3 cbr 210 ------- 3 2.0 7.0 5 15
- 0.11875 2 3 cbr 210 ------- 3 2.0 7.0 5 15
+ 0.12 0 3 cbr 1000 ------- 1 0.0 5.0 4 16
- 0.12 0 3 cbr 1000 ------- 1 0.0 5.0 4 16
r 0.1204 0 3 cbr 1000 ------- 1 0.0 5.0 2 8
+ 0.1204 3 4 cbr 1000 ------- 1 0.0 5.0 2 8
r 0.121334 1 3 cbr 210 ------- 2 1.0 6.0 3 9
+ 0.121334 3 4 cbr 210 ------- 2 1.0 6.0 3 9
r 0.121334 2 3 cbr 210 ------- 3 2.0 7.0 3 10
+ 0.121334 3 4 cbr 210 ------- 3 2.0 7.0 3 10
- 0.121444 3 4 cbr 210 ------- 2 1.0 6.0 1 3
r 0.121764 3 4 cbr 210 ------- 2 1.0 6.0 0 1
+ 0.121764 4 6 cbr 210 ------- 2 1.0 6.0 0 1
- 0.121764 4 6 cbr 210 ------- 2 1.0 6.0 0 1
+ 0.1225 1 3 cbr 210 ------- 2 1.0 6.0 6 17
- 0.1225 1 3 cbr 210 ------- 2 1.0 6.0 6 17
+ 0.1225 2 3 cbr 210 ------- 3 2.0 7.0 6 18
- 0.1225 2 3 cbr 210 ------- 3 2.0 7.0 6 18
- 0.123124 3 4 cbr 210 ------- 3 2.0 7.0 1 4
r 0.123444 3 4 cbr 210 ------- 3 2.0 7.0 0 2
+ 0.123444 4 7 cbr 210 ------- 3 2.0 7.0 0 2
- 0.123444 4 7 cbr 210 ------- 3 2.0 7.0 0 2
- 0.124804 3 4 cbr 1000 ------- 1 0.0 5.0 1 5
+ 0.125 0 3 cbr 1000 ------- 1 0.0 5.0 5 19
- 0.125 0 3 cbr 1000 ------- 1 0.0 5.0 5 19
r 0.125084 1 3 cbr 210 ------- 2 1.0 6.0 4 12
+ 0.125084 3 4 cbr 210 ------- 2 1.0 6.0 4 12
r 0.125084 2 3 cbr 210 ------- 3 2.0 7.0 4 13
+ 0.125084 3 4 cbr 210 ------- 3 2.0 7.0 4 13
r 0.1254 0 3 cbr 1000 ------- 1 0.0 5.0 3 11
+ 0.1254 3 4 cbr 1000 ------- 1 0.0 5.0 3 11
+ 0.12625 1 3 cbr 210 ------- 2 1.0 6.0 7 20
- 0.12625 1 3 cbr 210 ------- 2 1.0 6.0 7 20
+ 0.12625 2 3 cbr 210 ------- 3 2.0 7.0 7 21
- 0.12625 2 3 cbr 210 ------- 3 2.0 7.0 7 21
r 0.128834 1 3 cbr 210 ------- 2 1.0 6.0 5 14
+ 0.128834 3 4 cbr 210 ------- 2 1.0 6.0 5 14
r 0.128834 2 3 cbr 210 ------- 3 2.0 7.0 5 15
+ 0.128834 3 4 cbr 210 ------- 3 2.0 7.0 5 15
+ 0.13 0 3 cbr 1000 ------- 1 0.0 5.0 6 22
- 0.13 0 3 cbr 1000 ------- 1 0.0 5.0 6 22
+ 0.13 1 3 cbr 210 ------- 2 1.0 6.0 8 23
- 0.13 1 3 cbr 210 ------- 2 1.0 6.0 8 23
+ 0.13 2 3 cbr 210 ------- 3 2.0 7.0 8 24
- 0.13 2 3 cbr 210 ------- 3 2.0 7.0 8 24
r 0.1304 0 3 cbr 1000 ------- 1 0.0 5.0 4 16
+ 0.1304 3 4 cbr 1000 ------- 1 0.0 5.0 4 16
r 0.131444 3 4 cbr 1000 ------- 1 0.0 5.0 0 0
+ 0.131444 4 5 cbr 1000 ------- 1 0.0 5.0 0 0
- 0.131444 4 5 cbr 1000 ------- 1 0.0 5.0 0 0
r 0.131848 4 6 cbr 210 ------- 2 1.0 6.0 0 1
r 0.132584 1 3 cbr 210 ------- 2 1.0 6.0 6 17
+ 0.132584 3 4 cbr 210 ------- 2 1.0 6.0 6 17
r 0.132584 2 3 cbr 210 ------- 3 2.0 7.0 6 18
+ 0.132584 3 4 cbr 210 ------- 3 2.0 7.0 6 18
- 0.132804 3 4 cbr 210 ------- 2 1.0 6.0 2 6
r 0.133124 3 4 cbr 210 ------- 2 1.0 6.0 1 3
+ 0.133124 4 6 cbr 210 ------- 2 1.0 6.0 1 3
- 0.133124 4 6 cbr 210 ------- 2 1.0 6.0 1 3
r 0.133528 4 7 cbr 210 ------- 3 2.0 7.0 0 2
+ 0.13375 1 3 cbr 210 ------- 2 1.0 6.0 9 25
- 0.13375 1 3 cbr 210 ------- 2 1.0 6.0 9 25
+ 0.13375 2 3 cbr 210 ------- 3 2.0 7.0 9 26
- 0.13375 2 3 cbr 210 ------- 3 2.0 7.0 9 26
- 0.134484 3 4 cbr 210 ------- 3 2.0 7.0 2 7
r 0.134804 3 4 cbr 210 ------- 3 2.0 7.0 1 4
+ 0.134804 4 7 cbr 210 ------- 3 2.0 7.0 1 4
- 0.134804 4 7 cbr 210 ------- 3 2.0 7.0 1 4
+ 0.135 0 3 cbr 1000 ------- 1 0.0 5.0 7 27
- 0.135 0 3 cbr 1000 ------- 1 0.0 5.0 7 27
r 0.1354 0 3 cbr 1000 ------- 1 0.0 5.0 5 19
+ 0.1354 3 4 cbr 1000 ------- 1 0.0 5.0 5 19
- 0.136164 3 4 cbr 1000 ------- 1 0.0 5.0 2 8
r 0.136334 1 3 cbr 210 ------- 2 1.0 6.0 7 20
+ 0.136334 3 4 cbr 210 ------- 2 1.0 6.0 7 20
r 0.136334 2 3 cbr 210 ------- 3 2.0 7.0 7 21
+ 0.136334 3 4 cbr 210 ------- 3 2.0 7.0 7 21
+ 0.1375 1 3 cbr 210 ------- 2 1.0 6.0 10 28
- 0.1375 1 3 cbr 210 ------- 2 1.0 6.0 10 28
+ 0.1375 2 3 cbr 210 ------- 3 2.0 7.0 10 29
- 0.1375 2 3 cbr 210 ------- 3 2.0 7.0 10 29
+ 0.14 0 3 cbr 1000 ------- 1 0.0 5.0 8 30
- 0.14 0 3 cbr 1000 ------- 1 0.0 5.0 8 30
r 0.140084 1 3 cbr 210 ------- 2 1.0 6.0 8 23
+ 0.140084 3 4 cbr 210 ------- 2 1.0 6.0 8 23
r 0.140084 2 3 cbr 210 ------- 3 2.0 7.0 8 24
+ 0.140084 3 4 cbr 210 ------- 3 2.0 7.0 8 24
r 0.1404 0 3 cbr 1000 ------- 1 0.0 5.0 6 22
+ 0.1404 3 4 cbr 1000 ------- 1 0.0 5.0 6 22
+ 0.14125 1 3 cbr 210 ------- 2 1.0 6.0 11 31
- 0.14125 1 3 cbr 210 ------- 2 1.0 6.0 11 31
+ 0.14125 2 3 cbr 210 ------- 3 2.0 7.0 11 32
- 0.14125 2 3 cbr 210 ------- 3 2.0 7.0 11 32
r 0.141844 4 5 cbr 1000 ------- 1 0.0 5.0 0 0
r 0.142804 3 4 cbr 1000 ------- 1 0.0 5.0 1 5
+ 0.142804 4 5 cbr 1000 ------- 1 0.0 5.0 1 5
- 0.142804 4 5 cbr 1000 ------- 1 0.0 5.0 1 5
r 0.143208 4 6 cbr 210 ------- 2 1.0 6.0 1 3
r 0.143834 1 3 cbr 210 ------- 2 1.0 6.0 9 25
+ 0.143834 3 4 cbr 210 ------- 2 1.0 6.0 9 25
r 0.143834 2 3 cbr 210 ------- 3 2.0 7.0 9 26
+ 0.143834 3 4 cbr 210 ------- 3 2.0 7.0 9 26
- 0.144164 3 4 cbr 210 ------- 2 1.0 6.0 3 9
r 0.144484 3 4 cbr 210 ------- 2 1.0 6.0 2 6
+ 0.144484 4 6 cbr 210 ------- 2 1.0 6.0 2 6
- 0.144484 4 6 cbr 210 ------- 2 1.0 6.0 2 6
r 0.144888 4 7 cbr 210 ------- 3 2.0 7.0 1 4
+ 0.145 0 3 cbr 1000 ------- 1 0.0 5.0 9 33
- 0.145 0 3 cbr 1000 ------- 1 0.0 5.0 9 33
+ 0.145 1 3 cbr 210 ------- 2 1.0 6.0 12 34
- 0.145 1 3 cbr 210 ------- 2 1.0 6.0 12 34
+ 0.145 2 3 cbr 210 ------- 3 2.0 7.0 12 35
- 0.145 2 3 cbr 210 ------- 3 2.0 7.0 12 35
r 0.1454 0 3 cbr 1000 ------- 1 0.0 5.0 7 27
+ 0.1454 3 4 cbr 1000 ------- 1 0.0 5.0 7 27
- 0.145844 3 4 cbr 210 ------- 3 2.0 7.0 3 10
r 0.146164 3 4 cbr 210 ------- 3 2.0 7.0 2 7
+ 0.146164 4 7 cbr 210 ------- 3 2.0 7.0 2 7
- 0.146164 4 7 cbr 210 ------- 3 2.0 7.0 2 7
- 0.147524 3 4 cbr 210 ------- 2 1.0 6.0 4 12
r 0.147584 1 3 cbr 210 ------- 2 1.0 6.0 10 28
+ 0.147584 3 4 cbr 210 ------- 2 1.0 6.0 10 28
r 0.147584 2 3 cbr 210 ------- 3 2.0 7.0 10 29
+ 0.147584 3 4 cbr 210 ------- 3 2.0 7.0 10 29
+ 0.14875 1 3 cbr 210 ------- 2 1.0 6.0 13 36
- 0.14875 1 3 cbr 210 ------- 2 1.0 6.0 13 36
+ 0.14875 2 3 cbr 210 ------- 3 2.0 7.0 13 37
- 0.14875 2 3 cbr 210 ------- 3 2.0 7.0 13 37
- 0.149204 3 4 cbr 210 ------- 3 2.0 7.0 4 13
+ 0.15 0 3 cbr 1000 ------- 1 0.0 5.0 10 38
- 0.15 0 3 cbr 1000 ------- 1 0.0 5.0 10 38
r 0.1504 0 3 cbr 1000 ------- 1 0.0 5.0 8 30
+ 0.1504 3 4 cbr 1000 ------- 1 0.0 5.0 8 30
- 0.150884 3 4 cbr 1000 ------- 1 0.0 5.0 3 11
r 0.151334 1 3 cbr 210 ------- 2 1.0 6.0 11 31
+ 0.151334 3 4 cbr 210 ------- 2 1.0 6.0 11 31
r 0.151334 2 3 cbr 210 ------- 3 2.0 7.0 11 32
+ 0.151334 3 4 cbr 210 ------- 3 2.0 7.0 11 32
+ 0.1525 1 3 cbr 210 ------- 2 1.0 6.0 14 39
- 0.1525 1 3 cbr 210 ------- 2 1.0 6.0 14 39
+ 0.1525 2 3 cbr 210 ------- 3 2.0 7.0 14 40
- 0.1525 2 3 cbr 210 ------- 3 2.0 7.0 14 40
r 0.153204 4 5 cbr 1000 ------- 1 0.0 5.0 1 5
r 0.154164 3 4 cbr 1000 ------- 1 0.0 5.0 2 8
+ 0.154164 4 5 cbr 1000 ------- 1 0.0 5.0 2 8
- 0.154164 4 5 cbr 1000 ------- 1 0.0 5.0 2 8
r 0.154568 4 6 cbr 210 ------- 2 1.0 6.0 2 6
+ 0.155 0 3 cbr 1000 ------- 1 0.0 5.0 11 41
- 0.155 0 3 cbr 1000 ------- 1 0.0 5.0 11 41
r 0.155084 1 3 cbr 210 ------- 2 1.0 6.0 12 34
+ 0.155084 3 4 cbr 210 ------- 2 1.0 6.0 12 34
r 0.155084 2 3 cbr 210 ------- 3 2.0 7.0 12 35
+ 0.155084 3 4 cbr 210 ------- 3 2.0 7.0 12 35
r 0.1554 0 3 cbr 1000 ------- 1 0.0 5.0 9 33
+ 0.1554 3 4 cbr 1000 ------- 1 0.0 5.0 9 33
r 0.155844 3 4 cbr 210 ------- 2 1.0 6.0 3 9
+ 0.155844 4 6 cbr 210 ------- 2 1.0 6.0 3 9
- 0.155844 4 6 cbr 210 ------- 2 1.0 6.0 3 9
r 0.156248 4 7 cbr 210 ------- 3 2.0 7.0 2 7
+ 0.15625 1 3 cbr 210 ------- 2 1.0 6.0 15 42
- 0.15625 1 3 cbr 210 ------- 2 1.0 6.0 15 42
+ 0.15625 2 3 cbr 210 ------- 3 2.0 7.0 15 43
- 0.15625 2 3 cbr 210 ------- 3 2.0 7.0 15 43
r 0.157524 3 4 cbr 210 ------- 3 2.0 7.0 3 10
+ 0.157524 4 7 cbr 210 ------- 3 2.0 7.0 3 10
- 0.157524 4 7 cbr 210 ------- 3 2.0 7.0 3 10
r 0.158834 1 3 cbr 210 ------- 2 1.0 6.0 13 36
+ 0.158834 3 4 cbr 210 ------- 2 1.0 6.0 13 36
r 0.158834 2 3 cbr 210 ------- 3 2.0 7.0 13 37
+ 0.158834 3 4 cbr 210 ------- 3 2.0 7.0 13 37
- 0.158884 3 4 cbr 210 ------- 2 1.0 6.0 5 14
r 0.159204 3 4 cbr 210 ------- 2 1.0 6.0 4 12
+ 0.159204 4 6 cbr 210 ------- 2 1.0 6.0 4 12
- 0.159204 4 6 cbr 210 ------- 2 1.0 6.0 4 12
+ 0.16 0 3 cbr 1000 ------- 1 0.0 5.0 12 44
- 0.16 0 3 cbr 1000 ------- 1 0.0 5.0 12 44
+ 0.16 1 3 cbr 210 ------- 2 1.0 6.0 16 45
- 0.16 1 3 cbr 210 ------- 2 1.0 6.0 16 45
+ 0.16 2 3 cbr 210 ------- 3 2.0 7.0 16 46
- 0.16 2 3 cbr 210 ------- 3 2.0 7.0 16 46
r 0.1604 0 3 cbr 1000 ------- 1 0.0 5.0 10 38
+ 0.1604 3 4 cbr 1000 ------- 1 0.0 5.0 10 38
- 0.160564 3 4 cbr 210 ------- 3 2.0 7.0 5 15
r 0.160884 3 4 cbr 210 ------- 3 2.0 7.0 4 13
+ 0.160884 4 7 cbr 210 ------- 3 2.0 7.0 4 13
- 0.160884 4 7 cbr 210 ------- 3 2.0 7.0 4 13
- 0.162244 3 4 cbr 1000 ------- 1 0.0 5.0 4 16
r 0.162584 1 3 cbr 210 ------- 2 1.0 6.0 14 39
+ 0.162584 3 4 cbr 210 ------- 2 1.0 6.0 14 39
r 0.162584 2 3 cbr 210 ------- 3 2.0 7.0 14 40
+ 0.162584 3 4 cbr 210 ------- 3 2.0 7.0 14 40
+ 0.16375 1 3 cbr 210 ------- 2 1.0 6.0 17 47
- 0.16375 1 3 cbr 210 ------- 2 1.0 6.0 17 47
+ 0.16375 2 3 cbr 210 ------- 3 2.0 7.0 17 48
- 0.16375 2 3 cbr 210 ------- 3 2.0 7.0 17 48
r 0.164564 4 5 cbr 1000 ------- 1 0.0 5.0 2 8
+ 0.165 0 3 cbr 1000 ------- 1 0.0 5.0 13 49
- 0.165 0 3 cbr 1000 ------- 1 0.0 5.0 13 49
r 0.1654 0 3 cbr 1000 ------- 1 0.0 5.0 11 41
+ 0.1654 3 4 cbr 1000 ------- 1 0.0 5.0 11 41
r 0.165928 4 6 cbr 210 ------- 2 1.0 6.0 3 9
r 0.166334 1 3 cbr 210 ------- 2 1.0 6.0 15 42
+ 0.166334 3 4 cbr 210 ------- 2 1.0 6.0 15 42
r 0.166334 2 3 cbr 210 ------- 3 2.0 7.0 15 43
+ 0.166334 3 4 cbr 210 ------- 3 2.0 7.0 15 43
+ 0.1675 1 3 cbr 210 ------- 2 1.0 6.0 18 50
- 0.1675 1 3 cbr 210 ------- 2 1.0 6.0 18 50
+ 0.1675 2 3 cbr 210 ------- 3 2.0 7.0 18 51
- 0.1675 2 3 cbr 210 ------- 3 2.0 7.0 18 51
r 0.167608 4 7 cbr 210 ------- 3 2.0 7.0 3 10
r 0.168884 3 4 cbr 1000 ------- 1 0.0 5.0 3 11
+ 0.168884 4 5 cbr 1000 ------- 1 0.0 5.0 3 11
- 0.168884 4 5 cbr 1000 ------- 1 0.0 5.0 3 11
r 0.169288 4 6 cbr 210 ------- 2 1.0 6.0 4 12
+ 0.17 0 3 cbr 1000 ------- 1 0.0 5.0 14 52
- 0.17 0 3 cbr 1000 ------- 1 0.0 5.0 14 52
r 0.170084 1 3 cbr 210 ------- 2 1.0 6.0 16 45
+ 0.170084 3 4 cbr 210 ------- 2 1.0 6.0 16 45
r 0.170084 2 3 cbr 210 ------- 3 2.0 7.0 16 46
+ 0.170084 3 4 cbr 210 ------- 3 2.0 7.0 16 46
- 0.170244 3 4 cbr 210 ------- 2 1.0 6.0 6 17
r 0.1704 0 3 cbr 1000 ------- 1 0.0 5.0 12 44
+ 0.1704 3 4 cbr 1000 ------- 1 0.0 5.0 12 44
r 0.170564 3 4 cbr 210 ------- 2 1.0 6.0 5 14
+ 0.170564 4 6 cbr 210 ------- 2 1.0 6.0 5 14
- 0.170564 4 6 cbr 210 ------- 2 1.0 6.0 5 14
r 0.170968 4 7 cbr 210 ------- 3 2.0 7.0 4 13
+ 0.17125 1 3 cbr 210 ------- 2 1.0 6.0 19 53
- 0.17125 1 3 cbr 210 ------- 2 1.0 6.0 19 53
+ 0.17125 2 3 cbr 210 ------- 3 2.0 7.0 19 54
- 0.17125 2 3 cbr 210 ------- 3 2.0 7.0 19 54
- 0.171924 3 4 cbr 210 ------- 3 2.0 7.0 6 18
r 0.172244 3 4 cbr 210 ------- 3 2.0 7.0 5 15
+ 0.172244 4 7 cbr 210 ------- 3 2.0 7.0 5 15
- 0.172244 4 7 cbr 210 ------- 3 2.0 7.0 5 15
- 0.173604 3 4 cbr 1000 ------- 1 0.0 5.0 5 19
r 0.173834 1 3 cbr 210 ------- 2 1.0 6.0 17 47
+ 0.173834 3 4 cbr 210 ------- 2 1.0 6.0 17 47
r 0.173834 2 3 cbr 210 ------- 3 2.0 7.0 17 48
+ 0.173834 3 4 cbr 210 ------- 3 2.0 7.0 17 48
+ 0.175 0 3 cbr 1000 ------- 1 0.0 5.0 15 55
- 0.175 0 3 cbr 1000 ------- 1 0.0 5.0 15 55
+ 0.175 1 3 cbr 210 ------- 2 1.0 6.0 20 56
- 0.175 1 3 cbr 210 ------- 2 1.0 6.0 20 56
+ 0.175 2 3 cbr 210 ------- 3 2.0 7.0 20 57
- 0.175 2 3 cbr 210 ------- 3 2.0 7.0 20 57
r 0.1754 0 3 cbr 1000 ------- 1 0.0 5.0 13 49
+ 0.1754 3 4 cbr 1000 ------- 1 0.0 5.0 13 49
r 0.177584 1 3 cbr 210 ------- 2 1.0 6.0 18 50
+ 0.177584 3 4 cbr 210 ------- 2 1.0 6.0 18 50
r 0.177584 2 3 cbr 210 ------- 3 2.0 7.0 18 51
+ 0.177584 3 4 cbr 210 ------- 3 2.0 7.0 18 51
+ 0.17875 1 3 cbr 210 ------- 2 1.0 6.0 21 58
- 0.17875 1 3 cbr 210 ------- 2 1.0 6.0 21 58
+ 0.17875 2 3 cbr 210 ------- 3 2.0 7.0 21 59
- 0.17875 2 3 cbr 210 ------- 3 2.0 7.0 21 59
r 0.179284 4 5 cbr 1000 ------- 1 0.0 5.0 3 11
+ 0.18 0 3 cbr 1000 ------- 1 0.0 5.0 16 60
- 0.18 0 3 cbr 1000 ------- 1 0.0 5.0 16 60
r 0.180244 3 4 cbr 1000 ------- 1 0.0 5.0 4 16
+ 0.180244 4 5 cbr 1000 ------- 1 0.0 5.0 4 16
- 0.180244 4 5 cbr 1000 ------- 1 0.0 5.0 4 16
r 0.1804 0 3 cbr 1000 ------- 1 0.0 5.0 14 52
+ 0.1804 3 4 cbr 1000 ------- 1 0.0 5.0 14 52
r 0.180648 4 6 cbr 210 ------- 2 1.0 6.0 5 14
r 0.181334 1 3 cbr 210 ------- 2 1.0 6.0 19 53
+ 0.181334 3 4 cbr 210 ------- 2 1.0 6.0 19 53
r 0.181334 2 3 cbr 210 ------- 3 2.0 7.0 19 54
+ 0.181334 3 4 cbr 210 ------- 3 2.0 7.0 19 54
- 0.181604 3 4 cbr 210 ------- 2 1.0 6.0 7 20
r 0.181924 3 4 cbr 210 ------- 2 1.0 6.0 6 17
+ 0.181924 4 6 cbr 210 ------- 2 1.0 6.0 6 17
- 0.181924 4 6 cbr 210 ------- 2 1.0 6.0 6 17
r 0.182328 4 7 cbr 210 ------- 3 2.0 7.0 5 15
+ 0.1825 1 3 cbr 210 ------- 2 1.0 6.0 22 61
- 0.1825 1 3 cbr 210 ------- 2 1.0 6.0 22 61
+ 0.1825 2 3 cbr 210 ------- 3 2.0 7.0 22 62
- 0.1825 2 3 cbr 210 ------- 3 2.0 7.0 22 62
- 0.183284 3 4 cbr 210 ------- 3 2.0 7.0 7 21
r 0.183604 3 4 cbr 210 ------- 3 2.0 7.0 6 18
+ 0.183604 4 7 cbr 210 ------- 3 2.0 7.0 6 18
- 0.183604 4 7 cbr 210 ------- 3 2.0 7.0 6 18
- 0.184964 3 4 cbr 210 ------- 2 1.0 6.0 8 23
+ 0.185 0 3 cbr 1000 ------- 1 0.0 5.0 17 63
- 0.185 0 3 cbr 1000 ------- 1 0.0 5.0 17 63
r 0.185084 1 3 cbr 210 ------- 2 1.0 6.0 20 56
+ 0.185084 3 4 cbr 210 ------- 2 1.0 6.0 20 56
r 0.185084 2 3 cbr 210 ------- 3 2.0 7.0 20 57
+ 0.185084 3 4 cbr 210 ------- 3 2.0 7.0 20 57
r 0.1854 0 3 cbr 1000 ------- 1 0.0 5.0 15 55
+ 0.1854 3 4 cbr 1000 ------- 1 0.0 5.0 15 55
+ 0.18625 1 3 cbr 210 ------- 2 1.0 6.0 23 64
- 0.18625 1 3 cbr 210 ------- 2 1.0 6.0 23 64
+ 0.18625 2 3 cbr 210 ------- 3 2.0 7.0 23 65
- 0.18625 2 3 cbr 210 ------- 3 2.0 7.0 23 65
- 0.186644 3 4 cbr 210 ------- 3 2.0 7.0 8 24
- 0.188324 3 4 cbr 1000 ------- 1 0.0 5.0 6 22
r 0.188834 1 3 cbr 210 ------- 2 1.0 6.0 21 58
+ 0.188834 3 4 cbr 210 ------- 2 1.0 6.0 21 58
r 0.188834 2 3 cbr 210 ------- 3 2.0 7.0 21 59
+ 0.188834 3 4 cbr 210 ------- 3 2.0 7.0 21 59
+ 0.19 0 3 cbr 1000 ------- 1 0.0 5.0 18 66
- 0.19 0 3 cbr 1000 ------- 1 0.0 5.0 18 66
+ 0.19 1 3 cbr 210 ------- 2 1.0 6.0 24 67
- 0.19 1 3 cbr 210 ------- 2 1.0 6.0 24 67
+ 0.19 2 3 cbr 210 ------- 3 2.0 7.0 24 68
- 0.19 2 3 cbr 210 ------- 3 2.0 7.0 24 68
r 0.1904 0 3 cbr 1000 ------- 1 0.0 5.0 16 60
+ 0.1904 3 4 cbr 1000 ------- 1 0.0 5.0 16 60
r 0.190644 4 5 cbr 1000 ------- 1 0.0 5.0 4 16
r 0.191604 3 4 cbr 1000 ------- 1 0.0 5.0 5 19
+ 0.191604 4 5 cbr 1000 ------- 1 0.0 5.0 5 19
- 0.191604 4 5 cbr 1000 ------- 1 0.0 5.0 5 19
r 0.192008 4 6 cbr 210 ------- 2 1.0 6.0 6 17
r 0.192584 1 3 cbr 210 ------- 2 1.0 6.0 22 61
+ 0.192584 3 4 cbr 210 ------- 2 1.0 6.0 22 61
r 0.192584 2 3 cbr 210 ------- 3 2.0 7.0 22 62
+ 0.192584 3 4 cbr 210 ------- 3 2.0 7.0 22 62
r 0.193284 3 4 cbr 210 ------- 2 1.0 6.0 7 20
+ 0.193284 4 6 cbr 210 ------- 2 1.0 6.0 7 20
- 0.193284 4 6 cbr 210 ------- 2 1.0 6.0 7 20
r 0.193688 4 7 cbr 210 ------- 3 2.0 7.0 6 18
+ 0.19375 1 3 cbr 210 ------- 2 1.0 6.0 25 69
- 0.19375 1 3 cbr 210 ------- 2 1.0 6.0 25 69
+ 0.19375 2 3 cbr 210 ------- 3 2.0 7.0 25 70
- 0.19375 2 3 cbr 210 ------- 3 2.0 7.0 25 70
r 0.194964 3 4 cbr 210 ------- 3 2.0 7.0 7 21
+ 0.194964 4 7 cbr 210 ------- 3 2.0 7.0 7 21
- 0.194964 4 7 cbr 210 ------- 3 2.0 7.0 7 21
+ 0.195 0 3 cbr 1000 ------- 1 0.0 5.0 19 71
- 0.195 0 3 cbr 1000 ------- 1 0.0 5.0 19 71
r 0.1954 0 3 cbr 1000 ------- 1 0.0 5.0 17 63
+ 0.1954 3 4 cbr 1000 ------- 1 0.0 5.0 17 63
- 0.196324 3 4 cbr 210 ------- 2 1.0 6.0 9 25
r 0.196334 1 3 cbr 210 ------- 2 1.0 6.0 23 64
+ 0.196334 3 4 cbr 210 ------- 2 1.0 6.0 23 64
r 0.196334 2 3 cbr 210 ------- 3 2.0 7.0 23 65
+ 0.196334 3 4 cbr 210 ------- 3 2.0 7.0 23 65
r 0.196644 3 4 cbr 210 ------- 2 1.0 6.0 8 23
+ 0.196644 4 6 cbr 210 ------- 2 1.0 6.0 8 23
- 0.196644 4 6 cbr 210 ------- 2 1.0 6.0 8 23
+ 0.1975 1 3 cbr 210 ------- 2 1.0 6.0 26 72
- 0.1975 1 3 cbr 210 ------- 2 1.0 6.0 26 72
+ 0.1975 2 3 cbr 210 ------- 3 2.0 7.0 26 73
- 0.1975 2 3 cbr 210 ------- 3 2.0 7.0 26 73
- 0.198004 3 4 cbr 210 ------- 3 2.0 7.0 9 26
r 0.198324 3 4 cbr 210 ------- 3 2.0 7.0 8 24
+ 0.198324 4 7 cbr 210 ------- 3 2.0 7.0 8 24
- 0.198324 4 7 cbr 210 ------- 3 2.0 7.0 8 24
- 0.199684 3 4 cbr 1000 ------- 1 0.0 5.0 7 27
+ 0.2 0 3 cbr 1000 ------- 1 0.0 5.0 20 74
- 0.2 0 3 cbr 1000 ------- 1 0.0 5.0 20 74
r 0.200084 1 3 cbr 210 ------- 2 1.0 6.0 24 67
+ 0.200084 3 4 cbr 210 ------- 2 1.0 6.0 24 67
r 0.200084 2 3 cbr 210 ------- 3 2.0 7.0 24 68
+ 0.200084 3 4 cbr 210 ------- 3 2.0 7.0 24 68
r 0.2004 0 3 cbr 1000 ------- 1 0.0 5.0 18 66
+ 0.2004 3 4 cbr 1000 ------- 1 0.0 5.0 18 66
+ 0.20125 1 3 cbr 210 ------- 2 1.0 6.0 27 75
- 0.20125 1 3 cbr 210 ------- 2 1.0 6.0 27 75
+ 0.20125 2 3 cbr 210 ------- 3 2.0 7.0 27 76
- 0.20125 2 3 cbr 210 ------- 3 2.0 7.0 27 76
r 0.202004 4 5 cbr 1000 ------- 1 0.0 5.0 5 19
r 0.203368 4 6 cbr 210 ------- 2 1.0 6.0 7 20
r 0.203834 1 3 cbr 210 ------- 2 1.0 6.0 25 69
+ 0.203834 3 4 cbr 210 ------- 2 1.0 6.0 25 69
r 0.203834 2 3 cbr 210 ------- 3 2.0 7.0 25 70
+ 0.203834 3 4 cbr 210 ------- 3 2.0 7.0 25 70
+ 0.205 0 3 cbr 1000 ------- 1 0.0 5.0 21 77
- 0.205 0 3 cbr 1000 ------- 1 0.0 5.0 21 77
+ 0.205 1 3 cbr 210 ------- 2 1.0 6.0 28 78
- 0.205 1 3 cbr 210 ------- 2 1.0 6.0 28 78
+ 0.205 2 3 cbr 210 ------- 3 2.0 7.0 28 79
- 0.205 2 3 cbr 210 ------- 3 2.0 7.0 28 79
r 0.205048 4 7 cbr 210 ------- 3 2.0 7.0 7 21
r 0.2054 0 3 cbr 1000 ------- 1 0.0 5.0 19 71
+ 0.2054 3 4 cbr 1000 ------- 1 0.0 5.0 19 71
r 0.206324 3 4 cbr 1000 ------- 1 0.0 5.0 6 22
+ 0.206324 4 5 cbr 1000 ------- 1 0.0 5.0 6 22
- 0.206324 4 5 cbr 1000 ------- 1 0.0 5.0 6 22
r 0.206728 4 6 cbr 210 ------- 2 1.0 6.0 8 23
r 0.207584 1 3 cbr 210 ------- 2 1.0 6.0 26 72
+ 0.207584 3 4 cbr 210 ------- 2 1.0 6.0 26 72
r 0.207584 2 3 cbr 210 ------- 3 2.0 7.0 26 73
+ 0.207584 3 4 cbr 210 ------- 3 2.0 7.0 26 73
- 0.207684 3 4 cbr 210 ------- 2 1.0 6.0 10 28
r 0.208004 3 4 cbr 210 ------- 2 1.0 6.0 9 25
+ 0.208004 4 6 cbr 210 ------- 2 1.0 6.0 9 25
- 0.208004 4 6 cbr 210 ------- 2 1.0 6.0 9 25
r 0.208408 4 7 cbr 210 ------- 3 2.0 7.0 8 24
+ 0.20875 1 3 cbr 210 ------- 2 1.0 6.0 29 80
- 0.20875 1 3 cbr 210 ------- 2 1.0 6.0 29 80
+ 0.20875 2 3 cbr 210 ------- 3 2.0 7.0 29 81
- 0.20875 2 3 cbr 210 ------- 3 2.0 7.0 29 81
- 0.209364 3 4 cbr 210 ------- 3 2.0 7.0 10 29
r 0.209684 3 4 cbr 210 ------- 3 2.0 7.0 9 26
+ 0.209684 4 7 cbr 210 ------- 3 2.0 7.0 9 26
- 0.209684 4 7 cbr 210 ------- 3 2.0 7.0 9 26
+ 0.21 0 3 cbr 1000 ------- 1 0.0 5.0 22 82
- 0.21 0 3 cbr 1000 ------- 1 0.0 5.0 22 82
r 0.2104 0 3 cbr 1000 ------- 1 0.0 5.0 20 74
+ 0.2104 3 4 cbr 1000 ------- 1 0.0 5.0 20 74
- 0.211044 3 4 cbr 1000 ------- 1 0.0 5.0 8 30
r 0.211334 1 3 cbr 210 ------- 2 1.0 6.0 27 75
+ 0.211334 3 4 cbr 210 ------- 2 1.0 6.0 27 75
r 0.211334 2 3 cbr 210 ------- 3 2.0 7.0 27 76
+ 0.211334 3 4 cbr 210 ------- 3 2.0 7.0 27 76
+ 0.2125 1 3 cbr 210 ------- 2 1.0 6.0 30 83
- 0.2125 1 3 cbr 210 ------- 2 1.0 6.0 30 83
+ 0.2125 2 3 cbr 210 ------- 3 2.0 7.0 30 84
- 0.2125 2 3 cbr 210 ------- 3 2.0 7.0 30 84
+ 0.215 0 3 cbr 1000 ------- 1 0.0 5.0 23 85
- 0.215 0 3 cbr 1000 ------- 1 0.0 5.0 23 85
r 0.215084 1 3 cbr 210 ------- 2 1.0 6.0 28 78
+ 0.215084 3 4 cbr 210 ------- 2 1.0 6.0 28 78
r 0.215084 2 3 cbr 210 ------- 3 2.0 7.0 28 79
+ 0.215084 3 4 cbr 210 ------- 3 2.0 7.0 28 79
r 0.2154 0 3 cbr 1000 ------- 1 0.0 5.0 21 77
+ 0.2154 3 4 cbr 1000 ------- 1 0.0 5.0 21 77
+ 0.21625 1 3 cbr 210 ------- 2 1.0 6.0 31 86
- 0.21625 1 3 cbr 210 ------- 2 1.0 6.0 31 86
+ 0.21625 2 3 cbr 210 ------- 3 2.0 7.0 31 87
- 0.21625 2 3 cbr 210 ------- 3 2.0 7.0 31 87
r 0.216724 4 5 cbr 1000 ------- 1 0.0 5.0 6 22
r 0.217684 3 4 cbr 1000 ------- 1 0.0 5.0 7 27
+ 0.217684 4 5 cbr 1000 ------- 1 0.0 5.0 7 27
- 0.217684 4 5 cbr 1000 ------- 1 0.0 5.0 7 27
r 0.218088 4 6 cbr 210 ------- 2 1.0 6.0 9 25
r 0.218834 1 3 cbr 210 ------- 2 1.0 6.0 29 80
+ 0.218834 3 4 cbr 210 ------- 2 1.0 6.0 29 80
r 0.218834 2 3 cbr 210 ------- 3 2.0 7.0 29 81
+ 0.218834 3 4 cbr 210 ------- 3 2.0 7.0 29 81
- 0.219044 3 4 cbr 210 ------- 2 1.0 6.0 11 31
r 0.219364 3 4 cbr 210 ------- 2 1.0 6.0 10 28
+ 0.219364 4 6 cbr 210 ------- 2 1.0 6.0 10 28
- 0.219364 4 6 cbr 210 ------- 2 1.0 6.0 10 28
r 0.219768 4 7 cbr 210 ------- 3 2.0 7.0 9 26
+ 0.22 0 3 cbr 1000 ------- 1 0.0 5.0 24 88
- 0.22 0 3 cbr 1000 ------- 1 0.0 5.0 24 88
+ 0.22 1 3 cbr 210 ------- 2 1.0 6.0 32 89
- 0.22 1 3 cbr 210 ------- 2 1.0 6.0 32 89
+ 0.22 2 3 cbr 210 ------- 3 2.0 7.0 32 90
- 0.22 2 3 cbr 210 ------- 3 2.0 7.0 32 90
r 0.2204 0 3 cbr 1000 ------- 1 0.0 5.0 22 82
+ 0.2204 3 4 cbr 1000 ------- 1 0.0 5.0 22 82
- 0.220724 3 4 cbr 210 ------- 3 2.0 7.0 11 32
r 0.221044 3 4 cbr 210 ------- 3 2.0 7.0 10 29
+ 0.221044 4 7 cbr 210 ------- 3 2.0 7.0 10 29
- 0.221044 4 7 cbr 210 ------- 3 2.0 7.0 10 29
- 0.222404 3 4 cbr 210 ------- 2 1.0 6.0 12 34
r 0.222584 1 3 cbr 210 ------- 2 1.0 6.0 30 83
+ 0.222584 3 4 cbr 210 ------- 2 1.0 6.0 30 83
r 0.222584 2 3 cbr 210 ------- 3 2.0 7.0 30 84
+ 0.222584 3 4 cbr 210 ------- 3 2.0 7.0 30 84
+ 0.22375 1 3 cbr 210 ------- 2 1.0 6.0 33 91
- 0.22375 1 3 cbr 210 ------- 2 1.0 6.0 33 91
+ 0.22375 2 3 cbr 210 ------- 3 2.0 7.0 33 92
- 0.22375 2 3 cbr 210 ------- 3 2.0 7.0 33 92
- 0.224084 3 4 cbr 210 ------- 3 2.0 7.0 12 35
+ 0.225 0 3 cbr 1000 ------- 1 0.0 5.0 25 93
- 0.225 0 3 cbr 1000 ------- 1 0.0 5.0 25 93
r 0.2254 0 3 cbr 1000 ------- 1 0.0 5.0 23 85
+ 0.2254 3 4 cbr 1000 ------- 1 0.0 5.0 23 85
- 0.225764 3 4 cbr 1000 ------- 1 0.0 5.0 9 33
r 0.226334 1 3 cbr 210 ------- 2 1.0 6.0 31 86
+ 0.226334 3 4 cbr 210 ------- 2 1.0 6.0 31 86
r 0.226334 2 3 cbr 210 ------- 3 2.0 7.0 31 87
+ 0.226334 3 4 cbr 210 ------- 3 2.0 7.0 31 87
+ 0.2275 1 3 cbr 210 ------- 2 1.0 6.0 34 94
- 0.2275 1 3 cbr 210 ------- 2 1.0 6.0 34 94
+ 0.2275 2 3 cbr 210 ------- 3 2.0 7.0 34 95
- 0.2275 2 3 cbr 210 ------- 3 2.0 7.0 34 95
r 0.228084 4 5 cbr 1000 ------- 1 0.0 5.0 7 27
r 0.229044 3 4 cbr 1000 ------- 1 0.0 5.0 8 30
+ 0.229044 4 5 cbr 1000 ------- 1 0.0 5.0 8 30
- 0.229044 4 5 cbr 1000 ------- 1 0.0 5.0 8 30
r 0.229448 4 6 cbr 210 ------- 2 1.0 6.0 10 28
+ 0.23 0 3 cbr 1000 ------- 1 0.0 5.0 26 96
- 0.23 0 3 cbr 1000 ------- 1 0.0 5.0 26 96
r 0.230084 1 3 cbr 210 ------- 2 1.0 6.0 32 89
+ 0.230084 3 4 cbr 210 ------- 2 1.0 6.0 32 89
r 0.230084 2 3 cbr 210 ------- 3 2.0 7.0 32 90
+ 0.230084 3 4 cbr 210 ------- 3 2.0 7.0 32 90
r 0.2304 0 3 cbr 1000 ------- 1 0.0 5.0 24 88
+ 0.2304 3 4 cbr 1000 ------- 1 0.0 5.0 24 88
r 0.230724 3 4 cbr 210 ------- 2 1.0 6.0 11 31
+ 0.230724 4 6 cbr 210 ------- 2 1.0 6.0 11 31
- 0.230724 4 6 cbr 210 ------- 2 1.0 6.0 11 31
r 0.231128 4 7 cbr 210 ------- 3 2.0 7.0 10 29
+ 0.23125 1 3 cbr 210 ------- 2 1.0 6.0 35 97
- 0.23125 1 3 cbr 210 ------- 2 1.0 6.0 35 97
+ 0.23125 2 3 cbr 210 ------- 3 2.0 7.0 35 98
- 0.23125 2 3 cbr 210 ------- 3 2.0 7.0 35 98
r 0.232404 3 4 cbr 210 ------- 3 2.0 7.0 11 32
+ 0.232404 4 7 cbr 210 ------- 3 2.0 7.0 11 32
- 0.232404 4 7 cbr 210 ------- 3 2.0 7.0 11 32
- 0.233764 3 4 cbr 210 ------- 2 1.0 6.0 13 36
r 0.233834 1 3 cbr 210 ------- 2 1.0 6.0 33 91
+ 0.233834 3 4 cbr 210 ------- 2 1.0 6.0 33 91
r 0.233834 2 3 cbr 210 ------- 3 2.0 7.0 33 92
+ 0.233834 3 4 cbr 210 ------- 3 2.0 7.0 33 92
r 0.234084 3 4 cbr 210 ------- 2 1.0 6.0 12 34
+ 0.234084 4 6 cbr 210 ------- 2 1.0 6.0 12 34
- 0.234084 4 6 cbr 210 ------- 2 1.0 6.0 12 34
+ 0.235 0 3 cbr 1000 ------- 1 0.0 5.0 27 99
- 0.235 0 3 cbr 1000 ------- 1 0.0 5.0 27 99
+ 0.235 1 3 cbr 210 ------- 2 1.0 6.0 36 100
- 0.235 1 3 cbr 210 ------- 2 1.0 6.0 36 100
+ 0.235 2 3 cbr 210 ------- 3 2.0 7.0 36 101
- 0.235 2 3 cbr 210 ------- 3 2.0 7.0 36 101
r 0.2354 0 3 cbr 1000 ------- 1 0.0 5.0 25 93
+ 0.2354 3 4 cbr 1000 ------- 1 0.0 5.0 25 93
- 0.235444 3 4 cbr 210 ------- 3 2.0 7.0 13 37
r 0.235764 3 4 cbr 210 ------- 3 2.0 7.0 12 35
+ 0.235764 4 7 cbr 210 ------- 3 2.0 7.0 12 35
- 0.235764 4 7 cbr 210 ------- 3 2.0 7.0 12 35
- 0.237124 3 4 cbr 1000 ------- 1 0.0 5.0 10 38
r 0.237584 1 3 cbr 210 ------- 2 1.0 6.0 34 94
+ 0.237584 3 4 cbr 210 ------- 2 1.0 6.0 34 94
r 0.237584 2 3 cbr 210 ------- 3 2.0 7.0 34 95
+ 0.237584 3 4 cbr 210 ------- 3 2.0 7.0 34 95
+ 0.23875 1 3 cbr 210 ------- 2 1.0 6.0 37 102
- 0.23875 1 3 cbr 210 ------- 2 1.0 6.0 37 102
+ 0.23875 2 3 cbr 210 ------- 3 2.0 7.0 37 103
- 0.23875 2 3 cbr 210 ------- 3 2.0 7.0 37 103
r 0.239444 4 5 cbr 1000 ------- 1 0.0 5.0 8 30
+ 0.24 0 3 cbr 1000 ------- 1 0.0 5.0 28 104
- 0.24 0 3 cbr 1000 ------- 1 0.0 5.0 28 104
r 0.2404 0 3 cbr 1000 ------- 1 0.0 5.0 26 96
+ 0.2404 3 4 cbr 1000 ------- 1 0.0 5.0 26 96
r 0.240808 4 6 cbr 210 ------- 2 1.0 6.0 11 31
r 0.241334 1 3 cbr 210 ------- 2 1.0 6.0 35 97
+ 0.241334 3 4 cbr 210 ------- 2 1.0 6.0 35 97
r 0.241334 2 3 cbr 210 ------- 3 2.0 7.0 35 98
+ 0.241334 3 4 cbr 210 ------- 3 2.0 7.0 35 98
d 0.241334 3 4 cbr 210 ------- 3 2.0 7.0 35 98
r 0.242488 4 7 cbr 210 ------- 3 2.0 7.0 11 32
+ 0.2425 1 3 cbr 210 ------- 2 1.0 6.0 38 105
- 0.2425 1 3 cbr 210 ------- 2 1.0 6.0 38 105
+ 0.2425 2 3 cbr 210 ------- 3 2.0 7.0 38 106
- 0.2425 2 3 cbr 210 ------- 3 2.0 7.0 38 106
r 0.243764 3 4 cbr 1000 ------- 1 0.0 5.0 9 33
+ 0.243764 4 5 cbr 1000 ------- 1 0.0 5.0 9 33
- 0.243764 4 5 cbr 1000 ------- 1 0.0 5.0 9 33
r 0.244168 4 6 cbr 210 ------- 2 1.0 6.0 12 34
+ 0.245 0 3 cbr 1000 ------- 1 0.0 5.0 29 107
- 0.245 0 3 cbr 1000 ------- 1 0.0 5.0 29 107
r 0.245084 1 3 cbr 210 ------- 2 1.0 6.0 36 100
+ 0.245084 3 4 cbr 210 ------- 2 1.0 6.0 36 100
d 0.245084 3 4 cbr 210 ------- 2 1.0 6.0 36 100
r 0.245084 2 3 cbr 210 ------- 3 2.0 7.0 36 101
+ 0.245084 3 4 cbr 210 ------- 3 2.0 7.0 36 101
d 0.245084 3 4 cbr 210 ------- 3 2.0 7.0 36 101
- 0.245124 3 4 cbr 210 ------- 2 1.0 6.0 14 39
r 0.2454 0 3 cbr 1000 ------- 1 0.0 5.0 27 99
+ 0.2454 3 4 cbr 1000 ------- 1 0.0 5.0 27 99
r 0.245444 3 4 cbr 210 ------- 2 1.0 6.0 13 36
+ 0.245444 4 6 cbr 210 ------- 2 1.0 6.0 13 36
- 0.245444 4 6 cbr 210 ------- 2 1.0 6.0 13 36
r 0.245848 4 7 cbr 210 ------- 3 2.0 7.0 12 35
+ 0.24625 1 3 cbr 210 ------- 2 1.0 6.0 39 108
- 0.24625 1 3 cbr 210 ------- 2 1.0 6.0 39 108
+ 0.24625 2 3 cbr 210 ------- 3 2.0 7.0 39 109
- 0.24625 2 3 cbr 210 ------- 3 2.0 7.0 39 109
- 0.246804 3 4 cbr 210 ------- 3 2.0 7.0 14 40
r 0.247124 3 4 cbr 210 ------- 3 2.0 7.0 13 37
+ 0.247124 4 7 cbr 210 ------- 3 2.0 7.0 13 37
- 0.247124 4 7 cbr 210 ------- 3 2.0 7.0 13 37
- 0.248484 3 4 cbr 1000 ------- 1 0.0 5.0 11 41
r 0.248834 1 3 cbr 210 ------- 2 1.0 6.0 37 102
+ 0.248834 3 4 cbr 210 ------- 2 1.0 6.0 37 102
r 0.248834 2 3 cbr 210 ------- 3 2.0 7.0 37 103
+ 0.248834 3 4 cbr 210 ------- 3 2.0 7.0 37 103
+ 0.25 0 3 cbr 1000 ------- 1 0.0 5.0 30 110
- 0.25 0 3 cbr 1000 ------- 1 0.0 5.0 30 110
+ 0.25 1 3 cbr 210 ------- 2 1.0 6.0 40 111
- 0.25 1 3 cbr 210 ------- 2 1.0 6.0 40 111
+ 0.25 2 3 cbr 210 ------- 3 2.0 7.0 40 112
- 0.25 2 3 cbr 210 ------- 3 2.0 7.0 40 112
r 0.2504 0 3 cbr 1000 ------- 1 0.0 5.0 28 104
+ 0.2504 3 4 cbr 1000 ------- 1 0.0 5.0 28 104
d 0.2504 3 4 cbr 1000 ------- 1 0.0 5.0 28 104
r 0.252584 1 3 cbr 210 ------- 2 1.0 6.0 38 105
+ 0.252584 3 4 cbr 210 ------- 2 1.0 6.0 38 105
d 0.252584 3 4 cbr 210 ------- 2 1.0 6.0 38 105
r 0.252584 2 3 cbr 210 ------- 3 2.0 7.0 38 106
+ 0.252584 3 4 cbr 210 ------- 3 2.0 7.0 38 106
d 0.252584 3 4 cbr 210 ------- 3 2.0 7.0 38 106
+ 0.25375 1 3 cbr 210 ------- 2 1.0 6.0 41 113
- 0.25375 1 3 cbr 210 ------- 2 1.0 6.0 41 113
+ 0.25375 2 3 cbr 210 ------- 3 2.0 7.0 41 114
- 0.25375 2 3 cbr 210 ------- 3 2.0 7.0 41 114
r 0.254164 4 5 cbr 1000 ------- 1 0.0 5.0 9 33
+ 0.255 0 3 cbr 1000 ------- 1 0.0 5.0 31 115
- 0.255 0 3 cbr 1000 ------- 1 0.0 5.0 31 115
r 0.255124 3 4 cbr 1000 ------- 1 0.0 5.0 10 38
+ 0.255124 4 5 cbr 1000 ------- 1 0.0 5.0 10 38
- 0.255124 4 5 cbr 1000 ------- 1 0.0 5.0 10 38
r 0.2554 0 3 cbr 1000 ------- 1 0.0 5.0 29 107
+ 0.2554 3 4 cbr 1000 ------- 1 0.0 5.0 29 107
d 0.2554 3 4 cbr 1000 ------- 1 0.0 5.0 29 107
r 0.255528 4 6 cbr 210 ------- 2 1.0 6.0 13 36
r 0.256334 1 3 cbr 210 ------- 2 1.0 6.0 39 108
+ 0.256334 3 4 cbr 210 ------- 2 1.0 6.0 39 108
d 0.256334 3 4 cbr 210 ------- 2 1.0 6.0 39 108
r 0.256334 2 3 cbr 210 ------- 3 2.0 7.0 39 109