V -t * -v 1.0a5 -a 0
A -t * -n 1 -p 0 -o 0x7fffffff -c 30 -a 1
A -t * -h 1 -m 1073741823 -s 0
n -t * -a 4 -s 4 -S UP -v circle -c black -i black
n -t * -a 0 -s 0 -S UP -v circle -c black -i black
n -t * -a 5 -s 5 -S UP -v circle -c black -i black
n -t * -a 1 -s 1 -S UP -v circle -c black -i black
n -t * -a 6 -s 6 -S UP -v circle -c black -i black
n -t * -a 2 -s 2 -S UP -v circle -c black -i black
n -t * -a 7 -s 7 -S UP -v circle -c black -i black
n -t * -a 3 -s 3 -S UP -v circle -c black -i black
l -t * -s 0 -d 3 -S UP -r 20000000 -D 0.01 -c black
l -t * -s 1 -d 3 -S UP -r 20000000 -D 0.01 -c black
l -t * -s 2 -d 3 -S UP -r 20000000 -D 0.01 -c black
l -t * -s 3 -d 4 -S UP -r 1000000 -D 0.01 -c black
l -t * -s 4 -d 5 -S UP -r 20000000 -D 0.01 -c black
l -t * -s 4 -d 6 -S UP -r 20000000 -D 0.01 -c black
l -t * -s 4 -d 7 -S UP -r 20000000 -D 0.01 -c black
+ -t 0.1 -s 0 -d 3 -p cbr -e 1000 -c 1 -i 0 -a 1 -x {0.0 5.0 0 ------- null}
- -t 0.1 -s 0 -d 3 -p cbr -e 1000 -c 1 -i 0 -a 1 -x {0.0 5.0 0 ------- null}
h -t 0.1 -s 0 -d 3 -p cbr -e 1000 -c 1 -i 0 -a 1 -x {0.0 5.0 -1 ------- null}
+ -t 0.1 -s 1 -d 3 -p cbr -e 1000 -c 2 -i 1 -a 2 -x {1.0 6.0 0 ------- null}
- -t 0.1 -s 1 -d 3 -p cbr -e 1000 -c 2 -i 1 -a 2 -x {1.0 6.0 0 ------- null}
h -t 0.1 -s 1 -d 3 -p cbr -e 1000 -c 2 -i 1 -a 2 -x {1.0 6.0 -1 ------- null}
+ -t 0.1 -s 2 -d 3 -p cbr -e 1000 -c 3 -i 2 -a 3 -x {2.0 7.0 0 ------- null}
- -t 0.1 -s 2 -d 3 -p cbr -e 1000 -c 3 -i 2 -a 3 -x {2.0 7.0 0 ------- null}
h -t 0.1 -s 2 -d 3 -p cbr -e 1000 -c 3 -i 2 -a 3 -x {2.0 7.0 -1 ------- null}
+ -t 0.105 -s 0 -d 3 -p cbr -e 1000 -c 1 -i 3 -a 1 -x {0.0 5.0 1 ------- null}
- -t 0.105 -s 0 -d 3 -p cbr -e 1000 -c 1 -i 3 -a 1 -x {0.0 5.0 1 ------- null}
h -t 0.105 -s 0 -d 3 -p cbr -e 1000 -c 1 -i 3 -a 1 -x {0.0 5.0 -1 ------- null}
+ -t 0.105 -s 1 -d 3 -p cbr -e 1000 -c 2 -i 4 -a 2 -x {1.0 6.0 1 ------- null}
- -t 0.105 -s 1 -d 3 -p cbr -e 1000 -c 2 -i 4 -a 2 -x {1.0 6.0 1 ------- null}
h -t 0.105 -s 1 -d 3 -p cbr -e 1000 -c 2 -i 4 -a 2 -x {1.0 6.0 -1 ------- null}
+ -t 0.105 -s 2 -d 3 -p cbr -e 1000 -c 3 -i 5 -a 3 -x {2.0 7.0 1 ------- null}
- -t 0.105 -s 2 -d 3 -p cbr -e 1000 -c 3 -i 5 -a 3 -x {2.0 7.0 1 ------- null}
h -t 0.105 -s 2 -d 3 -p cbr -e 1000 -c 3 -i 5 -a 3 -x {2.0 7.0 -1 ------- null}
+ -t 0.11 -s 0 -d 3 -p cbr -e 1000 -c 1 -i 6 -a 1 -x {0.0 5.0 2 ------- null}
- -t 0.11 -s 0 -d 3 -p cbr -e 1000 -c 1 -i 6 -a 1 -x {0.0 5.0 2 ------- null}
h -t 0.11 -s 0 -d 3 -p cbr -e 1000 -c 1 -i 6 -a 1 -x {0.0 5.0 -1 ------- null}
+ -t 0.11 -s 1 -d 3 -p cbr -e 1000 -c 2 -i 7 -a 2 -x {1.0 6.0 2 ------- null}
- -t 0.11 -s 1 -d 3 -p cbr -e 1000 -c 2 -i 7 -a 2 -x {1.0 6.0 2 ------- null}
h -t 0.11 -s 1 -d 3 -p cbr -e 1000 -c 2 -i 7 -a 2 -x {1.0 6.0 -1 ------- null}
+ -t 0.11 -s 2 -d 3 -p cbr -e 1000 -c 3 -i 8 -a 3 -x {2.0 7.0 2 ------- null}
- -t 0.11 -s 2 -d 3 -p cbr -e 1000 -c 3 -i 8 -a 3 -x {2.0 7.0 2 ------- null}
h -t 0.11 -s 2 -d 3 -p cbr -e 1000 -c 3 -i 8 -a 3 -x {2.0 7.0 -1 ------- null}
r -t 0.1104 -s 0 -d 3 -p cbr -e 1000 -c 1 -i 0 -a 1 -x {0.0 5.0 0 ------- null}
+ -t 0.1104 -s 3 -d 4 -p cbr -e 1000 -c 1 -i 0 -a 1 -x {0.0 5.0 0 ------- null}
- -t 0.1104 -s 3 -d 4 -p cbr -e 1000 -c 1 -i 0 -a 1 -x {0.0 5.0 0 ------- null}
h -t 0.1104 -s 3 -d 4 -p cbr -e 1000 -c 1 -i 0 -a 1 -x {0.0 5.0 -1 ------- null}
r -t 0.1104 -s 1 -d 3 -p cbr -e 1000 -c 2 -i 1 -a 2 -x {1.0 6.0 0 ------- null}
+ -t 0.1104 -s 3 -d 4 -p cbr -e 1000 -c 2 -i 1 -a 2 -x {1.0 6.0 0 ------- null}
r -t 0.1104 -s 2 -d 3 -p cbr -e 1000 -c 3 -i 2 -a 3 -x {2.0 7.0 0 ------- null}
+ -t 0.1104 -s 3 -d 4 -p cbr -e 1000 -c 3 -i 2 -a 3 -x {2.0 7.0 0 ------- null}
+ -t 0.115 -s 0 -d 3 -p cbr -e 1000 -c 1 -i 9 -a 1 -x {0.0 5.0 3 ------- null}
- -t 0.115 -s 0 -d 3 -p cbr -e 1000 -c 1 -i 9 -a 1 -x {0.0 5.0 3 ------- null}
h -t 0.115 -s 0 -d 3 -p cbr -e 1000 -c 1 -i 9 -a 1 -x {0.0 5.0 -1 ------- null}
+ -t 0.115 -s 1 -d 3 -p cbr -e 1000 -c 2 -i 10 -a 2 -x {1.0 6.0 3 ------- null}
- -t 0.115 -s 1 -d 3 -p cbr -e 1000 -c 2 -i 10 -a 2 -x {1.0 6.0 3 ------- null}
h -t 0.115 -s 1 -d 3 -p cbr -e 1000 -c 2 -i 10 -a 2 -x {1.0 6.0 -1 ------- null}
+ -t 0.115 -s 2 -d 3 -p cbr -e 1000 -c 3 -i 11 -a 3 -x {2.0 7.0 3 ------- null}
- -t 0.115 -s 2 -d 3 -p cbr -e 1000 -c 3 -i 11 -a 3 -x {2.0 7.0 3 ------- null}
h -t 0.115 -s 2 -d 3 -p cbr -e 1000 -c 3 -i 11 -a 3 -x {2.0 7.0 -1 ------- null}
r -t 0.1154 -s 0 -d 3 -p cbr -e 1000 -c 1 -i 3 -a 1 -x {0.0 5.0 1 ------- null}
+ -t 0.1154 -s 3 -d 4 -p cbr -e 1000 -c 1 -i 3 -a 1 -x {0.0 5.0 1 ------- null}
r -t 0.1154 -s 1 -d 3 -p cbr -e 1000 -c 2 -i 4 -a 2 -x {1.0 6.0 1 ------- null}
+ -t 0.1154 -s 3 -d 4 -p cbr -e 1000 -c 2 -i 4 -a 2 -x {1.0 6.0 1 ------- null}
r -t 0.1154 -s 2 -d 3 -p cbr -e 1000 -c 3 -i 5 -a 3 -x {2.0 7.0 1 ------- null}
+ -t 0.1154 -s 3 -d 4 -p cbr -e 1000 -c 3 -i 5 -a 3 -x {2.0 7.0 1 ------- null}
- -t 0.1184 -s 3 -d 4 -p cbr -e 1000 -c 2 -i 1 -a 2 -x {1.0 6.0 0 ------- null}
h -t 0.1184 -s 3 -d 4 -p cbr -e 1000 -c 2 -i 1 -a 2 -x {1.0 6.0 -1 ------- null}
+ -t 0.12 -s 0 -d 3 -p cbr -e 1000 -c 1 -i 12 -a 1 -x {0.0 5.0 4 ------- null}
- -t 0.12 -s 0 -d 3 -p cbr -e 1000 -c 1 -i 12 -a 1 -x {0.0 5.0 4 ------- null}
h -t 0.12 -s 0 -d 3 -p cbr -e 1000 -c 1 -i 12 -a 1 -x {0.0 5.0 -1 ------- null}
+ -t 0.12 -s 1 -d 3 -p cbr -e 1000 -c 2 -i 13 -a 2 -x {1.0 6.0 4 ------- null}
- -t 0.12 -s 1 -d 3 -p cbr -e 1000 -c 2 -i 13 -a 2 -x {1.0 6.0 4 ------- null}
h -t 0.12 -s 1 -d 3 -p cbr -e 1000 -c 2 -i 13 -a 2 -x {1.0 6.0 -1 ------- null}
+ -t 0.12 -s 2 -d 3 -p cbr -e 1000 -c 3 -i 14 -a 3 -x {2.0 7.0 4 ------- null}
- -t 0.12 -s 2 -d 3 -p cbr -e 1000 -c 3 -i 14 -a 3 -x {2.0 7.0 4 ------- null}
h -t 0.12 -s 2 -d 3 -p cbr -e 1000 -c 3 -i 14 -a 3 -x {2.0 7.0 -1 ------- null}
r -t 0.1204 -s 0 -d 3 -p cbr -e 1000 -c 1 -i 6 -a 1 -x {0.0 5.0 2 ------- null}
+ -t 0.1204 -s 3 -d 4 -p cbr -e 1000 -c 1 -i 6 -a 1 -x {0.0 5.0 2 ------- null}
r -t 0.1204 -s 1 -d 3 -p cbr -e 1000 -c 2 -i 7 -a 2 -x {1.0 6.0 2 ------- null}
+ -t 0.1204 -s 3 -d 4 -p cbr -e 1000 -c 2 -i 7 -a 2 -x {1.0 6.0 2 ------- null}
r -t 0.1204 -s 2 -d 3 -p cbr -e 1000 -c 3 -i 8 -a 3 -x {2.0 7.0 2 ------- null}
+ -t 0.1204 -s 3 -d 4 -p cbr -e 1000 -c 3 -i 8 -a 3 -x {2.0 7.0 2 ------- null}
+ -t 0.125 -s 0 -d 3 -p cbr -e 1000 -c 1 -i 15 -a 1 -x {0.0 5.0 5 ------- null}
- -t 0.125 -s 0 -d 3 -p cbr -e 1000 -c 1 -i 15 -a 1 -x {0.0 5.0 5 ------- null}
h -t 0.125 -s 0 -d 3 -p cbr -e 1000 -c 1 -i 15 -a 1 -x {0.0 5.0 -1 ------- null}
+ -t 0.125 -s 1 -d 3 -p cbr -e 1000 -c 2 -i 16 -a 2 -x {1.0 6.0 5 ------- null}
- -t 0.125 -s 1 -d 3 -p cbr -e 1000 -c 2 -i 16 -a 2 -x {1.0 6.0 5 ------- null}
h -t 0.125 -s 1 -d 3 -p cbr -e 1000 -c 2 -i 16 -a 2 -x {1.0 6.0 -1 ------- null}
+ -t 0.125 -s 2 -d 3 -p cbr -e 1000 -c 3 -i 17 -a 3 -x {2.0 7.0 5 ------- null}
- -t 0.125 -s 2 -d 3 -p cbr -e 1000 -c 3 -i 17 -a 3 -x {2.0 7.0 5 ------- null}
h -t 0.125 -s 2 -d 3 -p cbr -e 1000 -c 3 -i 17 -a 3 -x {2.0 7.0 -1 ------- null}
r -t 0.1254 -s 0 -d 3 -p cbr -e 1000 -c 1 -i 9 -a 1 -x {0.0 5.0 3 ------- null}
+ -t 0.1254 -s 3 -d 4 -p cbr -e 1000 -c 1 -i 9 -a 1 -x {0.0 5.0 3 ------- null}
r -t 0.1254 -s 1 -d 3 -p cbr -e 1000 -c 2 -i 10 -a 2 -x {1.0 6.0 3 ------- null}
+ -t 0.1254 -s 3 -d 4 -p cbr -e 1000 -c 2 -i 10 -a 2 -x {1.0 6.0 3 ------- null}
r -t 0.1254 -s 2 -d 3 -p cbr -e 1000 -c 3 -i 11 -a 3 -x {2.0 7.0 3 ------- null}
+ -t 0.1254 -s 3 -d 4 -p cbr -e 1000 -c 3 -i 11 -a 3 -x {2.0 7.0 3 ------- null}
- -t 0.1264 -s 3 -d 4 -p cbr -e 1000 -c 3 -i 2 -a 3 -x {2.0 7.0 0 ------- null}
h -t 0.1264 -s 3 -d 4 -p cbr -e 1000 -c 3 -i 2 -a 3 -x {2.0 7.0 -1 ------- null}
r -t 0.1284 -s 3 -d 4 -p cbr -e 1000 -c 1 -i 0 -a 1 -x {0.0 5.0 0 ------- null}
+ -t 0.1284 -s 4 -d 5 -p cbr -e 1000 -c 1 -i 0 -a 1 -x {0.0 5.0 0 ------- null}
- -t 0.1284 -s 4 -d 5 -p cbr -e 1000 -c 1 -i 0 -a 1 -x {0.0 5.0 0 ------- null}
h -t 0.1284 -s 4 -d 5 -p cbr -e 1000 -c 1 -i 0 -a 1 -x {0.0 5.0 -1 ------- null}
+ -t 0.13 -s 0 -d 3 -p cbr -e 1000 -c 1 -i 18 -a 1 -x {0.0 5.0 6 ------- null}
- -t 0.13 -s 0 -d 3 -p cbr -e 1000 -c 1 -i 18 -a 1 -x {0.0 5.0 6 ------- null}
h -t 0.13 -s 0 -d 3 -p cbr -e 1000 -c 1 -i 18 -a 1 -x {0.0 5.0 -1 ------- null}
+ -t 0.13 -s 1 -d 3 -p cbr -e 1000 -c 2 -i 19 -a 2 -x {1.0 6.0 6 ------- null}
- -t 0.13 -s 1 -d 3 -p cbr -e 1000 -c 2 -i 19 -a 2 -x {1.0 6.0 6 ------- null}
h -t 0.13 -s 1 -d 3 -p cbr -e 1000 -c 2 -i 19 -a 2 -x {1.0 6.0 -1 ------- null}
+ -t 0.13 -s 2 -d 3 -p cbr -e 1000 -c 3 -i 20 -a 3 -x {2.0 7.0 6 ------- null}
- -t 0.13 -s 2 -d 3 -p cbr -e 1000 -c 3 -i 20 -a 3 -x {2.0 7.0 6 ------- null}
h -t 0.13 -s 2 -d 3 -p cbr -e 1000 -c 3 -i 20 -a 3 -x {2.0 7.0 -1 ------- null}
r -t 0.1304 -s 0 -d 3 -p cbr -e 1000 -c 1 -i 12 -a 1 -x {0.0 5.0 4 ------- null}
+ -t 0.1304 -s 3 -d 4 -p cbr -e 1000 -c 1 -i 12 -a 1 -x {0.0 5.0 4 ------- null}
r -t 0.1304 -s 1 -d 3 -p cbr -e 1000 -c 2 -i 13 -a 2 -x {1.0 6.0 4 ------- null}
+ -t 0.1304 -s 3 -d 4 -p cbr -e 1000 -c 2 -i 13 -a 2 -x {1.0 6.0 4 ------- null}
r -t 0.1304 -s 2 -d 3 -p cbr -e 1000 -c 3 -i 14 -a 3 -x {2.0 7.0 4 ------- null}
+ -t 0.1304 -s 3 -d 4 -p cbr -e 1000 -c 3 -i 14 -a 3 -x {2.0 7.0 4 ------- null}
- -t 0.1344 -s 3 -d 4 -p cbr -e 1000 -c 1 -i 3 -a 1 -x {0.0 5.0 1 ------- null}
h -t 0.1344 -s 3 -d 4 -p cbr -e 1000 -c 1 -i 3 -a 1 -x {0.0 5.0 -1 ------- null}
+ -t 0.135 -s 0 -d 3 -p cbr -e 1000 -c 1 -i 21 -a 1 -x {0.0 5.0 7 ------- null}
- -t 0.135 -s 0 -d 3 -p cbr -e 1000 -c 1 -i 21 -a 1 -x {0.0 5.0 7 ------- null}
h -t 0.135 -s 0 -d 3 -p cbr -e 1000 -c 1 -i 21 -a 1 -x {0.0 5.0 -1 ------- null}
+ -t 0.135 -s 1 -d 3 -p cbr -e 1000 -c 2 -i 22 -a 2 -x {1.0 6.0 7 ------- null}
- -t 0.135 -s 1 -d 3 -p cbr -e 1000 -c 2 -i 22 -a 2 -x {1.0 6.0 7 ------- null}
h -t 0.135 -s 1 -d 3 -p cbr -e 1000 -c 2 -i 22 -a 2 -x {1.0 6.0 -1 ------- null}
+ -t 0.135 -s 2 -d 3 -p cbr -e 1000 -c 3 -i 23 -a 3 -x {2.0 7.0 7 ------- null}
- -t 0.135 -s 2 -d 3 -p cbr -e 1000 -c 3 -i 23 -a 3 -x {2.0 7.0 7 ------- null}
h -t 0.135 -s 2 -d 3 -p cbr -e 1000 -c 3 -i 23 -a 3 -x {2.0 7.0 -1 ------- null}
r -t 0.1354 -s 0 -d 3 -p cbr -e 1000 -c 1 -i 15 -a 1 -x {0.0 5.0 5 ------- null}
+ -t 0.1354 -s 3 -d 4 -p cbr -e 1000 -c 1 -i 15 -a 1 -x {0.0 5.0 5 ------- null}
r -t 0.1354 -s 1 -d 3 -p cbr -e 1000 -c 2 -i 16 -a 2 -x {1.0 6.0 5 ------- null}
+ -t 0.1354 -s 3 -d 4 -p cbr -e 1000 -c 2 -i 16 -a 2 -x {1.0 6.0 5 ------- null}
r -t 0.1354 -s 2 -d 3 -p cbr -e 1000 -c 3 -i 17 -a 3 -x {2.0 7.0 5 ------- null}
+ -t 0.1354 -s 3 -d 4 -p cbr -e 1000 -c 3 -i 17 -a 3 -x {2.0 7.0 5 ------- null}
r -t 0.1364 -s 3 -d 4 -p cbr -e 1000 -c 2 -i 1 -a 2 -x {1.0 6.0 0 ------- null}
+ -t 0.1364 -s 4 -d 6 -p cbr -e 1000 -c 2 -i 1 -a 2 -x {1.0 6.0 0 ------- null}
- -t 0.1364 -s 4 -d 6 -p cbr -e 1000 -c 2 -i 1 -a 2 -x {1.0 6.0 0 ------- null}
h -t 0.1364 -s 4 -d 6 -p cbr -e 1000 -c 2 -i 1 -a 2 -x {1.0 6.0 -1 ------- null}
r -t 0.1388 -s 4 -d 5 -p cbr -e 1000 -c 1 -i 0 -a 1 -x {0.0 5.0 0 ------- null}
+ -t 0.14 -s 0 -d 3 -p cbr -e 1000 -c 1 -i 24 -a 1 -x {0.0 5.0 8 ------- null}
- -t 0.14 -s 0 -d 3 -p cbr -e 1000 -c 1 -i 24 -a 1 -x {0.0 5.0 8 ------- null}
h -t 0.14 -s 0 -d 3 -p cbr -e 1000 -c 1 -i 24 -a 1 -x {0.0 5.0 -1 ------- null}
+ -t 0.14 -s 1 -d 3 -p cbr -e 1000 -c 2 -i 25 -a 2 -x {1.0 6.0 8 ------- null}
- -t 0.14 -s 1 -d 3 -p cbr -e 1000 -c 2 -i 25 -a 2 -x {1.0 6.0 8 ------- null}
h -t 0.14 -s 1 -d 3 -p cbr -e 1000 -c 2 -i 25 -a 2 -x {1.0 6.0 -1 ------- null}
+ -t 0.14 -s 2 -d 3 -p cbr -e 1000 -c 3 -i 26 -a 3 -x {2.0 7.0 8 ------- null}
- -t 0.14 -s 2 -d 3 -p cbr -e 1000 -c 3 -i 26 -a 3 -x {2.0 7.0 8 ------- null}
h -t 0.14 -s 2 -d 3 -p cbr -e 1000 -c 3 -i 26 -a 3 -x {2.0 7.0 -1 ------- null}
r -t 0.1404 -s 0 -d 3 -p cbr -e 1000 -c 1 -i 18 -a 1 -x {0.0 5.0 6 ------- null}
+ -t 0.1404 -s 3 -d 4 -p cbr -e 1000 -c 1 -i 18 -a 1 -x {0.0 5.0 6 ------- null}
r -t 0.1404 -s 1 -d 3 -p cbr -e 1000 -c 2 -i 19 -a 2 -x {1.0 6.0 6 ------- null}
+ -t 0.1404 -s 3 -d 4 -p cbr -e 1000 -c 2 -i 19 -a 2 -x {1.0 6.0 6 ------- null}
r -t 0.1404 -s 2 -d 3 -p cbr -e 1000 -c 3 -i 20 -a 3 -x {2.0 7.0 6 ------- null}
+ -t 0.1404 -s 3 -d 4 -p cbr -e 1000 -c 3 -i 20 -a 3 -x {2.0 7.0 6 ------- null}
- -t 0.1424 -s 3 -d 4 -p cbr -e 1000 -c 2 -i 4 -a 2 -x {1.0 6.0 1 ------- null}
h -t 0.1424 -s 3 -d 4 -p cbr -e 1000 -c 2 -i 4 -a 2 -x {1.0 6.0 -1 ------- null}
r -t 0.1444 -s 3 -d 4 -p cbr -e 1000 -c 3 -i 2 -a 3 -x {2.0 7.0 0 ------- null}
+ -t 0.1444 -s 4 -d 7 -p cbr -e 1000 -c 3 -i 2 -a 3 -x {2.0 7.0 0 ------- null}
- -t 0.1444 -s 4 -d 7 -p cbr -e 1000 -c 3 -i 2 -a 3 -x {2.0 7.0 0 ------- null}
h -t 0.1444 -s 4 -d 7 -p cbr -e 1000 -c 3 -i 2 -a 3 -x {2.0 7.0 -1 ------- null}
+ -t 0.145 -s 0 -d 3 -p cbr -e 1000 -c 1 -i 27 -a 1 -x {0.0 5.0 9 ------- null}
- -t 0.145 -s 0 -d 3 -p cbr -e 1000 -c 1 -i 27 -a 1 -x {0.0 5.0 9 ------- null}
h -t 0.145 -s 0 -d 3 -p cbr -e 1000 -c 1 -i 27 -a 1 -x {0.0 5.0 -1 ------- null}
+ -t 0.145 -s 1 -d 3 -p cbr -e 1000 -c 2 -i 28 -a 2 -x {1.0 6.0 9 ------- null}
- -t 0.145 -s 1 -d 3 -p cbr -e 1000 -c 2 -i 28 -a 2 -x {1.0 6.0 9 ------- null}
h -t 0.145 -s 1 -d 3 -p cbr -e 1000 -c 2 -i 28 -a 2 -x {1.0 6.0 -1 ------- null}
+ -t 0.145 -s 2 -d 3 -p cbr -e 1000 -c 3 -i 29 -a 3 -x {2.0 7.0 9 ------- null}
- -t 0.145 -s 2 -d 3 -p cbr -e 1000 -c 3 -i 29 -a 3 -x {2.0 7.0 9 ------- null}
h -t 0.145 -s 2 -d 3 -p cbr -e 1000 -c 3 -i 29 -a 3 -x {2.0 7.0 -1 ------- null}
r -t 0.1454 -s 0 -d 3 -p cbr -e 1000 -c 1 -i 21 -a 1 -x {0.0 5.0 7 ------- null}
+ -t 0.1454 -s 3 -d 4 -p cbr -e 1000 -c 1 -i 21 -a 1 -x {0.0 5.0 7 ------- null}
r -t 0.1454 -s 1 -d 3 -p cbr -e 1000 -c 2 -i 22 -a 2 -x {1.0 6.0 7 ------- null}
+ -t 0.1454 -s 3 -d 4 -p cbr -e 1000 -c 2 -i 22 -a 2 -x {1.0 6.0 7 ------- null}
r -t 0.1454 -s 2 -d 3 -p cbr -e 1000 -c 3 -i 23 -a 3 -x {2.0 7.0 7 ------- null}
+ -t 0.1454 -s 3 -d 4 -p cbr -e 1000 -c 3 -i 23 -a 3 -x {2.0 7.0 7 ------- null}
r -t 0.1468 -s 4 -d 6 -p cbr -e 1000 -c 2 -i 1 -a 2 -x {1.0 6.0 0 ------- null}
+ -t 0.15 -s 0 -d 3 -p cbr -e 1000 -c 1 -i 30 -a 1 -x {0.0 5.0 10 ------- null}
- -t 0.15 -s 0 -d 3 -p cbr -e 1000 -c 1 -i 30 -a 1 -x {0.0 5.0 10 ------- null}
h -t 0.15 -s 0 -d 3 -p cbr -e 1000 -c 1 -i 30 -a 1 -x {0.0 5.0 -1 ------- null}
+ -t 0.15 -s 1 -d 3 -p cbr -e 1000 -c 2 -i 31 -a 2 -x {1.0 6.0 10 ------- null}
- -t 0.15 -s 1 -d 3 -p cbr -e 1000 -c 2 -i 31 -a 2 -x {1.0 6.0 10 ------- null}
h -t 0.15 -s 1 -d 3 -p cbr -e 1000 -c 2 -i 31 -a 2 -x {1.0 6.0 -1 ------- null}
+ -t 0.15 -s 2 -d 3 -p cbr -e 1000 -c 3 -i 32 -a 3 -x {2.0 7.0 10 ------- null}
- -t 0.15 -s 2 -d 3 -p cbr -e 1000 -c 3 -i 32 -a 3 -x {2.0 7.0 10 ------- null}
h -t 0.15 -s 2 -d 3 -p cbr -e 1000 -c 3 -i 32 -a 3 -x {2.0 7.0 -1 ------- null}
r -t 0.1504 -s 0 -d 3 -p cbr -e 1000 -c 1 -i 24 -a 1 -x {0.0 5.0 8 ------- null}
+ -t 0.1504 -s 3 -d 4 -p cbr -e 1000 -c 1 -i 24 -a 1 -x {0.0 5.0 8 ------- null}
r -t 0.1504 -s 1 -d 3 -p cbr -e 1000 -c 2 -i 25 -a 2 -x {1.0 6.0 8 ------- null}
+ -t 0.1504 -s 3 -d 4 -p cbr -e 1000 -c 2 -i 25 -a 2 -x {1.0 6.0 8 ------- null}
r -t 0.1504 -s 2 -d 3 -p cbr -e 1000 -c 3 -i 26 -a 3 -x {2.0 7.0 8 ------- null}
+ -t 0.1504 -s 3 -d 4 -p cbr -e 1000 -c 3 -i 26 -a 3 -x {2.0 7.0 8 ------- null}
- -t 0.1504 -s 3 -d 4 -p cbr -e 1000 -c 3 -i 5 -a 3 -x {2.0 7.0 1 ------- null}
h -t 0.1504 -s 3 -d 4 -p cbr -e 1000 -c 3 -i 5 -a 3 -x {2.0 7.0 -1 ------- null}
r -t 0.1524 -s 3 -d 4 -p cbr -e 1000 -c 1 -i 3 -a 1 -x {0.0 5.0 1 ------- null}
+ -t 0.1524 -s 4 -d 5 -p cbr -e 1000 -c 1 -i 3 -a 1 -x {0.0 5.0 1 ------- null}
- -t 0.1524 -s 4 -d 5 -p cbr -e 1000 -c 1 -i 3 -a 1 -x {0.0 5.0 1 ------- null}
h -t 0.1524 -s 4 -d 5 -p cbr -e 1000 -c 1 -i 3 -a 1 -x {0.0 5.0 -1 ------- null}
r -t 0.1548 -s 4 -d 7 -p cbr -e 1000 -c 3 -i 2 -a 3 -x {2.0 7.0 0 ------- null}
+ -t 0.155 -s 0 -d 3 -p cbr -e 1000 -c 1 -i 33 -a 1 -x {0.0 5.0 11 ------- null}
- -t 0.155 -s 0 -d 3 -p cbr -e 1000 -c 1 -i 33 -a 1 -x {0.0 5.0 11 ------- null}
h -t 0.155 -s 0 -d 3 -p cbr -e 1000 -c 1 -i 33 -a 1 -x {0.0 5.0 -1 ------- null}
+ -t 0.155 -s 1 -d 3 -p cbr -e 1000 -c 2 -i 34 -a 2 -x {1.0 6.0 11 ------- null}
- -t 0.155 -s 1 -d 3 -p cbr -e 1000 -c 2 -i 34 -a 2 -x {1.0 6.0 11 ------- null}
h -t 0.155 -s 1 -d 3 -p cbr -e 1000 -c 2 -i 34 -a 2 -x {1.0 6.0 -1 ------- null}
+ -t 0.155 -s 2 -d 3 -p cbr -e 1000 -c 3 -i 35 -a 3 -x {2.0 7.0 11 ------- null}
- -t 0.155 -s 2 -d 3 -p cbr -e 1000 -c 3 -i 35 -a 3 -x {2.0 7.0 11 ------- null}
h -t 0.155 -s 2 -d 3 -p cbr -e 1000 -c 3 -i 35 -a 3 -x {2.0 7.0 -1 ------- null}
r -t 0.1554 -s 0 -d 3 -p cbr -e 1000 -c 1 -i 27 -a 1 -x {0.0 5.0 9 ------- null}
+ -t 0.1554 -s 3 -d 4 -p cbr -e 1000 -c 1 -i 27 -a 1 -x {0.0 5.0 9 ------- null}
r -t 0.1554 -s 1 -d 3 -p cbr -e 1000 -c 2 -i 28 -a 2 -x {1.0 6.0 9 ------- null}
+ -t 0.1554 -s 3 -d 4 -p cbr -e 1000 -c 2 -i 28 -a 2 -x {1.0 6.0 9 ------- null}
r -t 0.1554 -s 2 -d 3 -p cbr -e 1000 -c 3 -i 29 -a 3 -x {2.0 7.0 9 ------- null}
+ -t 0.1554 -s 3 -d 4 -p cbr -e 1000 -c 3 -i 29 -a 3 -x {2.0 7.0 9 ------- null}
- -t 0.1584 -s 3 -d 4 -p cbr -e 1000 -c 1 -i 6 -a 1 -x {0.0 5.0 2 ------- null}
h -t 0.1584 -s 3 -d 4 -p cbr -e 1000 -c 1 -i 6 -a 1 -x {0.0 5.0 -1 ------- null}
+ -t 0.16 -s 0 -d 3 -p cbr -e 1000 -c 1 -i 36 -a 1 -x {0.0 5.0 12 ------- null}
- -t 0.16 -s 0 -d 3 -p cbr -e 1000 -c 1 -i 36 -a 1 -x {0.0 5.0 12 ------- null}
h -t 0.16 -s 0 -d 3 -p cbr -e 1000 -c 1 -i 36 -a 1 -x {0.0 5.0 -1 ------- null}
+ -t 0.16 -s 1 -d 3 -p cbr -e 1000 -c 2 -i 37 -a 2 -x {1.0 6.0 12 ------- null}
- -t 0.16 -s 1 -d 3 -p cbr -e 1000 -c 2 -i 37 -a 2 -x {1.0 6.0 12 ------- null}
h -t 0.16 -s 1 -d 3 -p cbr -e 1000 -c 2 -i 37 -a 2 -x {1.0 6.0 -1 ------- null}
+ -t 0.16 -s 2 -d 3 -p cbr -e 1000 -c 3 -i 38 -a 3 -x {2.0 7.0 12 ------- null}
- -t 0.16 -s 2 -d 3 -p cbr -e 1000 -c 3 -i 38 -a 3 -x {2.0 7.0 12 ------- null}
h -t 0.16 -s 2 -d 3 -p cbr -e 1000 -c 3 -i 38 -a 3 -x {2.0 7.0 -1 ------- null}
r -t 0.1604 -s 3 -d 4 -p cbr -e 1000 -c 2 -i 4 -a 2 -x {1.0 6.0 1 ------- null}
+ -t 0.1604 -s 4 -d 6 -p cbr -e 1000 -c 2 -i 4 -a 2 -x {1.0 6.0 1 ------- null}
- -t 0.1604 -s 4 -d 6 -p cbr -e 1000 -c 2 -i 4 -a 2 -x {1.0 6.0 1 ------- null}
h -t 0.1604 -s 4 -d 6 -p cbr -e 1000 -c 2 -i 4 -a 2 -x {1.0 6.0 -1 ------- null}
r -t 0.1604 -s 0 -d 3 -p cbr -e 1000 -c 1 -i 30 -a 1 -x {0.0 5.0 10 ------- null}
+ -t 0.1604 -s 3 -d 4 -p cbr -e 1000 -c 1 -i 30 -a 1 -x {0.0 5.0 10 ------- null}
r -t 0.1604 -s 1 -d 3 -p cbr -e 1000 -c 2 -i 31 -a 2 -x {1.0 6.0 10 ------- null}
+ -t 0.1604 -s 3 -d 4 -p cbr -e 1000 -c 2 -i 31 -a 2 -x {1.0 6.0 10 ------- null}
r -t 0.1604 -s 2 -d 3 -p cbr -e 1000 -c 3 -i 32 -a 3 -x {2.0 7.0 10 ------- null}
+ -t 0.1604 -s 3 -d 4 -p cbr -e 1000 -c 3 -i 32 -a 3 -x {2.0 7.0 10 ------- null}
d -t 0.1604 -s 3 -d 4 -p cbr -e 1000 -c 3 -i 32 -a 3 -x {2.0 7.0 10 ------- null}
r -t 0.1628 -s 4 -d 5 -p cbr -e 1000 -c 1 -i 3 -a 1 -x {0.0 5.0 1 ------- null}
+ -t 0.165 -s 0 -d 3 -p cbr -e 1000 -c 1 -i 39 -a 1 -x {0.0 5.0 13 ------- null}
- -t 0.165 -s 0 -d 3 -p cbr -e 1000 -c 1 -i 39 -a 1 -x {0.0 5.0 13 ------- null}
h -t 0.165 -s 0 -d 3 -p cbr -e 1000 -c 1 -i 39 -a 1 -x {0.0 5.0 -1 ------- null}
+ -t 0.165 -s 1 -d 3 -p cbr -e 1000 -c 2 -i 40 -a 2 -x {1.0 6.0 13 ------- null}
- -t 0.165 -s 1 -d 3 -p cbr -e 1000 -c 2 -i 40 -a 2 -x {1.0 6.0 13 ------- null}
h -t 0.165 -s 1 -d 3 -p cbr -e 1000 -c 2 -i 40 -a 2 -x {1.0 6.0 -1 ------- null}
+ -t 0.165 -s 2 -d 3 -p cbr -e 1000 -c 3 -i 41 -a 3 -x {2.0 7.0 13 ------- null}
- -t 0.165 -s 2 -d 3 -p cbr -e 1000 -c 3 -i 41 -a 3 -x {2.0 7.0 13 ------- null}
h -t 0.165 -s 2 -d 3 -p cbr -e 1000 -c 3 -i 41 -a 3 -x {2.0 7.0 -1 ------- null}
r -t 0.1654 -s 0 -d 3 -p cbr -e 1000 -c 1 -i 33 -a 1 -x {0.0 5.0 11 ------- null}
+ -t 0.1654 -s 3 -d 4 -p cbr -e 1000 -c 1 -i 33 -a 1 -x {0.0 5.0 11 ------- null}
d -t 0.1654 -s 3 -d 4 -p cbr -e 1000 -c 1 -i 33 -a 1 -x {0.0 5.0 11 ------- null}
r -t 0.1654 -s 1 -d 3 -p cbr -e 1000 -c 2 -i 34 -a 2 -x {1.0 6.0 11 ------- null}
+ -t 0.1654 -s 3 -d 4 -p cbr -e 1000 -c 2 -i 34 -a 2 -x {1.0 6.0 11 ------- null}
d -t 0.1654 -s 3 -d 4 -p cbr -e 1000 -c 2 -i 34 -a 2 -x {1.0 6.0 11 ------- null}
r -t 0.1654 -s 2 -d 3 -p cbr -e 1000 -c 3 -i 35 -a 3 -x {2.0 7.0 11 ------- null}
+ -t 0.1654 -s 3 -d 4 -p cbr -e 1000 -c 3 -i 35 -a 3 -x {2.0 7.0 11 ------- null}
d -t 0.1654 -s 3 -d 4 -p cbr -e 1000 -c 3 -i 35 -a 3 -x {2.0 7.0 11 ------- null}
- -t 0.1664 -s 3 -d 4 -p cbr -e 1000 -c 2 -i 7 -a 2 -x {1.0 6.0 2 ------- null}
h -t 0.1664 -s 3 -d 4 -p cbr -e 1000 -c 2 -i 7 -a 2 -x {1.0 6.0 -1 ------- null}
r -t 0.1684 -s 3 -d 4 -p cbr -e 1000 -c 3 -i 5 -a 3 -x {2.0 7.0 1 ------- null}
+ -t 0.1684 -s 4 -d 7 -p cbr -e 1000 -c 3 -i 5 -a 3 -x {2.0 7.0 1 ------- null}
- -t 0.1684 -s 4 -d 7 -p cbr -e 1000 -c 3 -i 5 -a 3 -x {2.0 7.0 1 ------- null}
h -t 0.1684 -s 4 -d 7 -p cbr -e 1000 -c 3 -i 5 -a 3 -x {2.0 7.0 -1 ------- null}
+ -t 0.17 -s 0 -d 3 -p cbr -e 1000 -c 1 -i 42 -a 1 -x {0.0 5.0 14 ------- null}
- -t 0.17 -s 0 -d 3 -p cbr -e 1000 -c 1 -i 42 -a 1 -x {0.0 5.0 14 ------- null}
h -t 0.17 -s 0 -d 3 -p cbr -e 1000 -c 1 -i 42 -a 1 -x {0.0 5.0 -1 ------- null}
+ -t 0.17 -s 1 -d 3 -p cbr -e 1000 -c 2 -i 43 -a 2 -x {1.0 6.0 14 ------- null}
- -t 0.17 -s 1 -d 3 -p cbr -e 1000 -c 2 -i 43 -a 2 -x {1.0 6.0 14 ------- null}
h -t 0.17 -s 1 -d 3 -p cbr -e 1000 -c 2 -i 43 -a 2 -x {1.0 6.0 -1 ------- null}
+ -t 0.17 -s 2 -d 3 -p cbr -e 1000 -c 3 -i 44 -a 3 -x {2.0 7.0 14 ------- null}
- -t 0.17 -s 2 -d 3 -p cbr -e 1000 -c 3 -i 44 -a 3 -x {2.0 7.0 14 ------- null}
h -t 0.17 -s 2 -d 3 -p cbr -e 1000 -c 3 -i 44 -a 3 -x {2.0 7.0 -1 ------- null}
r -t 0.1704 -s 0 -d 3 -p cbr -e 1000 -c 1 -i 36 -a 1 -x {0.0 5.0 12 ------- null}
+ -t 0.1704 -s 3 -d 4 -p cbr -e 1000 -c 1 -i 36 -a 1 -x {0.0 5.0 12 ------- null}
r -t 0.1704 -s 1 -d 3 -p cbr -e 1000 -c 2 -i 37 -a 2 -x {1.0 6.0 12 ------- null}
+ -t 0.1704 -s 3 -d 4 -p cbr -e 1000 -c 2 -i 37 -a 2 -x {1.0 6.0 12 ------- null}
d -t 0.1704 -s 3 -d 4 -p cbr -e 1000 -c 2 -i 37 -a 2 -x {1.0 6.0 12 ------- null}
r -t 0.1704 -s 2 -d 3 -p cbr -e 1000 -c 3 -i 38 -a 3 -x {2.0 7.0 12 ------- null}
+ -t 0.1704 -s 3 -d 4 -p cbr -e 1000 -c 3 -i 38 -a 3 -x {2.0 7.0 12 ------- null}
d -t 0.1704 -s 3 -d 4 -p cbr -e 1000 -c 3 -i 38 -a 3 -x {2.0 7.0 12 ------- null}
r -t 0.1708 -s 4 -d 6 -p cbr -e 1000 -c 2 -i 4 -a 2 -x {1.0 6.0 1 ------- null}
- -t 0.1744 -s 3 -d 4 -p cbr -e 1000 -c 3 -i 8 -a 3 -x {2.0 7.0 2 ------- null}
h -t 0.1744 -s 3 -d 4 -p cbr -e 1000 -c 3 -i 8 -a 3 -x {2.0 7.0 -1 ------- null}
+ -t 0.175 -s 0 -d 3 -p cbr -e 1000 -c 1 -i 45 -a 1 -x {0.0 5.0 15 ------- null}
- -t 0.175 -s 0 -d 3 -p cbr -e 1000 -c 1 -i 45 -a 1 -x {0.0 5.0 15 ------- null}
h -t 0.175 -s 0 -d 3 -p cbr -e 1000 -c 1 -i 45 -a 1 -x {0.0 5.0 -1 ------- null}
+ -t 0.175 -s 1 -d 3 -p cbr -e 1000 -c 2 -i 46 -a 2 -x {1.0 6.0 15 ------- null}
- -t 0.175 -s 1 -d 3 -p cbr -e 1000 -c 2 -i 46 -a 2 -x {1.0 6.0 15 ------- null}
h -t 0.175 -s 1 -d 3 -p cbr -e 1000 -c 2 -i 46 -a 2 -x {1.0 6.0 -1 ------- null}
+ -t 0.175 -s 2 -d 3 -p cbr -e 1000 -c 3 -i 47 -a 3 -x {2.0 7.0 15 ------- null}
- -t 0.175 -s 2 -d 3 -p cbr -e 1000 -c 3 -i 47 -a 3 -x {2.0 7.0 15 ------- null}
h -t 0.175 -s 2 -d 3 -p cbr -e 1000 -c 3 -i 47 -a 3 -x {2.0 7.0 -1 ------- null}
r -t 0.1754 -s 0 -d 3 -p cbr -e 1000 -c 1 -i 39 -a 1 -x {0.0 5.0 13 ------- null}
+ -t 0.1754 -s 3 -d 4 -p cbr -e 1000 -c 1 -i 39 -a 1 -x {0.0 5.0 13 ------- null}
r -t 0.1754 -s 1 -d 3 -p cbr -e 1000 -c 2 -i 40 -a 2 -x {1.0 6.0 13 ------- null}
+ -t 0.1754 -s 3 -d 4 -p cbr -e 1000 -c 2 -i 40 -a 2 -x {1.0 6.0 13 ------- null}
d -t 0.1754 -s 3 -d 4 -p cbr -e 1000 -c 2 -i 40 -a 2 -x {1.0 6.0 13 ------- null}
r -t 0.1754 -s 2 -d 3 -p cbr -e 1000 -c 3 -i 41 -a 3 -x {2.0 7.0 13 ------- null}
+ -t 0.1754 -s 3 -d 4 -p cbr -e 1000 -c 3 -i 41 -a 3 -x {2.0 7.0 13 ------- null}
d -t 0.1754 -s 3 -d 4 -p cbr -e 1000 -c 3 -i 41 -a 3 -x {2.0 7.0 13 ------- null}
r -t 0.1764 -s 3 -d 4 -p cbr -e 1000 -c 1 -i 6 -a 1 -x {0.0 5.0 2 ------- null}
+ -t 0.1764 -s 4 -d 5 -p cbr -e 1000 -c 1 -i 6 -a 1 -x {0.0 5.0 2 ------- null}
- -t 0.1764 -s 4 -d 5 -p cbr -e 1000 -c 1 -i 6 -a 1 -x {0.0 5.0 2 ------- null}
h -t 0.1764 -s 4 -d 5 -p cbr -e 1000 -c 1 -i 6 -a 1 -x {0.0 5.0 -1 ------- null}
r -t 0.1788 -s 4 -d 7 -p cbr -e 1000 -c 3 -i 5 -a 3 -x {2.0 7.0 1 ------- null}
+ -t 0.18 -s 0 -d 3 -p cbr -e 1000 -c 1 -i 48 -a 1 -x {0.0 5.0 16 ------- null}
- -t 0.18 -s 0 -d 3 -p cbr -e 1000 -c 1 -i 48 -a 1 -x {0.0 5.0 16 ------- null}
h -t 0.18 -s 0 -d 3 -p cbr -e 1000 -c 1 -i 48 -a 1 -x {0.0 5.0 -1 ------- null}
+ -t 0.18 -s 1 -d 3 -p cbr -e 1000 -c 2 -i 49 -a 2 -x {1.0 6.0 16 ------- null}
- -t 0.18 -s 1 -d 3 -p cbr -e 1000 -c 2 -i 49 -a 2 -x {1.0 6.0 16 ------- null}
h -t 0.18 -s 1 -d 3 -p cbr -e 1000 -c 2 -i 49 -a 2 -x {1.0 6.0 -1 ------- null}
+ -t 0.18 -s 2 -d 3 -p cbr -e 1000 -c 3 -i 50 -a 3 -x {2.0 7.0 16 ------- null}
- -t 0.18 -s 2 -d 3 -p cbr -e 1000 -c 3 -i 50 -a 3 -x {2.0 7.0 16 ------- null}
h -t 0.18 -s 2 -d 3 -p cbr -e 1000 -c 3 -i 50 -a 3 -x {2.0 7.0 -1 ------- null}
r -t 0.1804 -s 0 -d 3 -p cbr -e 1000 -c 1 -i 42 -a 1 -x {0.0 5.0 14 ------- null}
+ -t 0.1804 -s 3 -d 4 -p cbr -e 1000 -c 1 -i 42 -a 1 -x {0.0 5.0 14 ------- null}
d -t 0.1804 -s 3 -d 4 -p cbr -e 1000 -c 1 -i 42 -a 1 -x {0.0 5.0 14 ------- null}
r -t 0.1804 -s 1 -d 3 -p cbr -e 1000 -c 2 -i 43 -a 2 -x {1.0 6.0 14 ------- null}
+ -t 0.1804 -s 3 -d 4 -p cbr -e 1000 -c 2 -i 43 -a 2 -x {1.0 6.0 14 ------- null}
d -t 0.1804 -s 3 -d 4 -p cbr -e 1000 -c 2 -i 43 -a 2 -x {1.0 6.0 14 ------- null}
r -t 0.1804 -s 2 -d 3 -p cbr -e 1000 -c 3 -i 44 -a 3 -x {2.0 7.0 14 ------- null}
+ -t 0.1804 -s 3 -d 4 -p cbr -e 1000 -c 3 -i 44 -a 3 -x {2.0 7.0 14 ------- null}
d -t 0.1804 -s 3 -d 4 -p cbr -e 1000 -c 3 -i 44 -a 3 -x {2.0 7.0 14 ------- null}
- -t 0.1824 -s 3 -d 4 -p cbr -e 1000 -c 1 -i 9 -a 1 -x {0.0 5.0 3 ------- null}
h -t 0.1824 -s 3 -d 4 -p cbr -e 1000 -c 1 -i 9 -a 1 -x {0.0 5.0 -1 ------- null}
r -t 0.1844 -s 3 -d 4 -p cbr -e 1000 -c 2 -i 7 -a 2 -x {1.0 6.0 2 ------- null}
+ -t 0.1844 -s 4 -d 6 -p cbr -e 1000 -c 2 -i 7 -a 2 -x {1.0 6.0 2 ------- null}
- -t 0.1844 -s 4 -d 6 -p cbr -e 1000 -c 2 -i 7 -a 2 -x {1.0 6.0 2 ------- null}
h -t 0.1844 -s 4 -d 6 -p cbr -e 1000 -c 2 -i 7 -a 2 -x {1.0 6.0 -1 ------- null}
+ -t 0.185 -s 0 -d 3 -p cbr -e 1000 -c 1 -i 51 -a 1 -x {0.0 5.0 17 ------- null}
- -t 0.185 -s 0 -d 3 -p cbr -e 1000 -c 1 -i 51 -a 1 -x {0.0 5.0 17 ------- null}
h -t 0.185 -s 0 -d 3 -p cbr -e 1000 -c 1 -i 51 -a 1 -x {0.0 5.0 -1 ------- null}
+ -t 0.185 -s 1 -d 3 -p cbr -e 1000 -c 2 -i 52 -a 2 -x {1.0 6.0 17 ------- null}
- -t 0.185 -s 1 -d 3 -p cbr -e 1000 -c 2 -i 52 -a 2 -x {1.0 6.0 17 ------- null}
h -t 0.185 -s 1 -d 3 -p cbr -e 1000 -c 2 -i 52 -a 2 -x {1.0 6.0 -1 ------- null}
+ -t 0.185 -s 2 -d 3 -p cbr -e 1000 -c 3 -i 53 -a 3 -x {2.0 7.0 17 ------- null}
- -t 0.185 -s 2 -d 3 -p cbr -e 1000 -c 3 -i 53 -a 3 -x {2.0 7.0 17 ------- null}
h -t 0.185 -s 2 -d 3 -p cbr -e 1000 -c 3 -i 53 -a 3 -x {2.0 7.0 -1 ------- null}
r -t 0.1854 -s 0 -d 3 -p cbr -e 1000 -c 1 -i 45 -a 1 -x {0.0 5.0 15 ------- null}
+ -t 0.1854 -s 3 -d 4 -p cbr -e 1000 -c 1 -i 45 -a 1 -x {0.0 5.0 15 ------- null}
r -t 0.1854 -s 1 -d 3 -p cbr -e 1000 -c 2 -i 46 -a 2 -x {1.0 6.0 15 ------- null}
+ -t 0.1854 -s 3 -d 4 -p cbr -e 1000 -c 2 -i 46 -a 2 -x {1.0 6.0 15 ------- null}
d -t 0.1854 -s 3 -d 4 -p cbr -e 1000 -c 2 -i 46 -a 2 -x {1.0 6.0 15 ------- null}
r -t 0.1854 -s 2 -d 3 -p cbr -e 1000 -c 3 -i 47 -a 3 -x {2.0 7.0 15 ------- null}
+ -t 0.1854 -s 3 -d 4 -p cbr -e 1000 -c 3 -i 47 -a 3 -x {2.0 7.0 15 ------- null}
d -t 0.1854 -s 3 -d 4 -p cbr -e 1000 -c 3 -i 47 -a 3 -x {2.0 7.0 15 ------- null}
r -t 0.1868 -s 4 -d 5 -p cbr -e 1000 -c 1 -i 6 -a 1 -x {0.0 5.0 2 ------- null}
+ -t 0.19 -s 0 -d 3 -p cbr -e 1000 -c 1 -i 54 -a 1 -x {0.0 5.0 18 ------- null}
- -t 0.19 -s 0 -d 3 -p cbr -e 1000 -c 1 -i 54 -a 1 -x {0.0 5.0 18 ------- null}
h -t 0.19 -s 0 -d 3 -p cbr -e 1000 -c 1 -i 54 -a 1 -x {0.0 5.0 -1 ------- null}
+ -t 0.19 -s 1 -d 3 -p cbr -e 1000 -c 2 -i 55 -a 2 -x {1.0 6.0 18 ------- null}
- -t 0.19 -s 1 -d 3 -p cbr -e 1000 -c 2 -i 55 -a 2 -x {1.0 6.0 18 ------- null}
h -t 0.19 -s 1 -d 3 -p cbr -e 1000 -c 2 -i 55 -a 2 -x {1.0 6.0 -1 ------- null}
+ -t 0.19 -s 2 -d 3 -p cbr -e 1000 -c 3 -i 56 -a 3 -x {2.0 7.0 18 ------- null}
- -t 0.19 -s 2 -d 3 -p cbr -e 1000 -c 3 -i 56 -a 3 -x {2.0 7.0 18 ------- null}
h -t 0.19 -s 2 -d 3 -p cbr -e 1000 -c 3 -i 56 -a 3 -x {2.0 7.0 -1 ------- null}
r -t 0.1904 -s 0 -d 3 -p cbr -e 1000 -c 1 -i 48 -a 1 -x {0.0 5.0 16 ------- null}
+ -t 0.1904 -s 3 -d 4 -p cbr -e 1000 -c 1 -i 48 -a 1 -x {0.0 5.0 16 ------- null}
d -t 0.1904 -s 3 -d 4 -p cbr -e 1000 -c 1 -i 48 -a 1 -x {0.0 5.0 16 ------- null}
r -t 0.1904 -s 1 -d 3 -p cbr -e 1000 -c 2 -i 49 -a 2 -x {1.0 6.0 16 ------- null}
+ -t 0.1904 -s 3 -d 4 -p cbr -e 1000 -c 2 -i 49 -a 2 -x {1.0 6.0 16 ------- null}
d -t 0.1904 -s 3 -d 4 -p cbr -e 1000 -c 2 -i 49 -a 2 -x {1.0 6.0 16 ------- null}
r -t 0.1904 -s 2 -d 3 -p cbr -e 1000 -c 3 -i 50 -a 3 -x {2.0 7.0 16 ------- null}
+ -t 0.1904 -s 3 -d 4 -p cbr -e 1000 -c 3 -i 50 -a 3 -x {2.0 7.0 16 ------- null}
d -t 0.1904 -s 3 -d 4 -p cbr -e 1000 -c 3 -i 50 -a 3 -x {2.0 7.0 16 ------- null}
- -t 0.1904 -s 3 -d 4 -p cbr -e 1000 -c 2 -i 10 -a 2 -x {1.0 6.0 3 ------- null}
h -t 0.1904 -s 3 -d 4 -p cbr -e 1000 -c 2 -i 10 -a 2 -x {1.0 6.0 -1 ------- null}
r -t 0.1924 -s 3 -d 4 -p cbr -e 1000 -c 3 -i 8 -a 3 -x {2.0 7.0 2 ------- null}
+ -t 0.1924 -s 4 -d 7 -p cbr -e 1000 -c 3 -i 8 -a 3 -x {2.0 7.0 2 ------- null}
- -t 0.1924 -s 4 -d 7 -p cbr -e 1000 -c 3 -i 8 -a 3 -x {2.0 7.0 2 ------- null}
h -t 0.1924 -s 4 -d 7 -p cbr -e 1000 -c 3 -i 8 -a 3 -x {2.0 7.0 -1 ------- null}
r -t 0.1948 -s 4 -d 6 -p cbr -e 1000 -c 2 -i 7 -a 2 -x {1.0 6.0 2 ------- null}
+ -t 0.195 -s 0 -d 3 -p cbr -e 1000 -c 1 -i 57 -a 1 -x {0.0 5.0 19 ------- null}
- -t 0.195 -s 0 -d 3 -p cbr -e 1000 -c 1 -i 57 -a 1 -x {0.0 5.0 19 ------- null}
h -t 0.195 -s 0 -d 3 -p cbr -e 1000 -c 1 -i 57 -a 1 -x {0.0 5.0 -1 ------- null}
+ -t 0.195 -s 1 -d 3 -p cbr -e 1000 -c 2 -i 58 -a 2 -x {1.0 6.0 19 ------- null}
- -t 0.195 -s 1 -d 3 -p cbr -e 1000 -c 2 -i 58 -a 2 -x {1.0 6.0 19 ------- null}
h -t 0.195 -s 1 -d 3 -p cbr -e 1000 -c 2 -i 58 -a 2 -x {1.0 6.0 -1 ------- null}
+ -t 0.195 -s 2 -d 3 -p cbr -e 1000 -c 3 -i 59 -a 3 -x {2.0 7.0 19 ------- null}