+ 0.1 0 3 cbr 1000 ------- 1 0.0 5.0 0 0
- 0.1 0 3 cbr 1000 ------- 1 0.0 5.0 0 0
+ 0.1 1 3 cbr 1000 ------- 2 1.0 6.0 0 1
- 0.1 1 3 cbr 1000 ------- 2 1.0 6.0 0 1
+ 0.1 2 3 cbr 1000 ------- 3 2.0 7.0 0 2
- 0.1 2 3 cbr 1000 ------- 3 2.0 7.0 0 2
+ 0.105 0 3 cbr 1000 ------- 1 0.0 5.0 1 3
- 0.105 0 3 cbr 1000 ------- 1 0.0 5.0 1 3
+ 0.105 1 3 cbr 1000 ------- 2 1.0 6.0 1 4
- 0.105 1 3 cbr 1000 ------- 2 1.0 6.0 1 4
+ 0.105 2 3 cbr 1000 ------- 3 2.0 7.0 1 5
- 0.105 2 3 cbr 1000 ------- 3 2.0 7.0 1 5
+ 0.11 0 3 cbr 1000 ------- 1 0.0 5.0 2 6
- 0.11 0 3 cbr 1000 ------- 1 0.0 5.0 2 6
+ 0.11 1 3 cbr 1000 ------- 2 1.0 6.0 2 7
- 0.11 1 3 cbr 1000 ------- 2 1.0 6.0 2 7
+ 0.11 2 3 cbr 1000 ------- 3 2.0 7.0 2 8
- 0.11 2 3 cbr 1000 ------- 3 2.0 7.0 2 8
r 0.1104 0 3 cbr 1000 ------- 1 0.0 5.0 0 0
+ 0.1104 3 4 cbr 1000 ------- 1 0.0 5.0 0 0
- 0.1104 3 4 cbr 1000 ------- 1 0.0 5.0 0 0
r 0.1104 1 3 cbr 1000 ------- 2 1.0 6.0 0 1
+ 0.1104 3 4 cbr 1000 ------- 2 1.0 6.0 0 1
r 0.1104 2 3 cbr 1000 ------- 3 2.0 7.0 0 2
+ 0.1104 3 4 cbr 1000 ------- 3 2.0 7.0 0 2
+ 0.115 0 3 cbr 1000 ------- 1 0.0 5.0 3 9
- 0.115 0 3 cbr 1000 ------- 1 0.0 5.0 3 9
+ 0.115 1 3 cbr 1000 ------- 2 1.0 6.0 3 10
- 0.115 1 3 cbr 1000 ------- 2 1.0 6.0 3 10
+ 0.115 2 3 cbr 1000 ------- 3 2.0 7.0 3 11
- 0.115 2 3 cbr 1000 ------- 3 2.0 7.0 3 11
r 0.1154 0 3 cbr 1000 ------- 1 0.0 5.0 1 3
+ 0.1154 3 4 cbr 1000 ------- 1 0.0 5.0 1 3
r 0.1154 1 3 cbr 1000 ------- 2 1.0 6.0 1 4
+ 0.1154 3 4 cbr 1000 ------- 2 1.0 6.0 1 4
r 0.1154 2 3 cbr 1000 ------- 3 2.0 7.0 1 5
+ 0.1154 3 4 cbr 1000 ------- 3 2.0 7.0 1 5
- 0.1184 3 4 cbr 1000 ------- 2 1.0 6.0 0 1
+ 0.12 0 3 cbr 1000 ------- 1 0.0 5.0 4 12
- 0.12 0 3 cbr 1000 ------- 1 0.0 5.0 4 12
+ 0.12 1 3 cbr 1000 ------- 2 1.0 6.0 4 13
- 0.12 1 3 cbr 1000 ------- 2 1.0 6.0 4 13
+ 0.12 2 3 cbr 1000 ------- 3 2.0 7.0 4 14
- 0.12 2 3 cbr 1000 ------- 3 2.0 7.0 4 14
r 0.1204 0 3 cbr 1000 ------- 1 0.0 5.0 2 6
+ 0.1204 3 4 cbr 1000 ------- 1 0.0 5.0 2 6
r 0.1204 1 3 cbr 1000 ------- 2 1.0 6.0 2 7
+ 0.1204 3 4 cbr 1000 ------- 2 1.0 6.0 2 7
r 0.1204 2 3 cbr 1000 ------- 3 2.0 7.0 2 8
+ 0.1204 3 4 cbr 1000 ------- 3 2.0 7.0 2 8
+ 0.125 0 3 cbr 1000 ------- 1 0.0 5.0 5 15
- 0.125 0 3 cbr 1000 ------- 1 0.0 5.0 5 15
+ 0.125 1 3 cbr 1000 ------- 2 1.0 6.0 5 16
- 0.125 1 3 cbr 1000 ------- 2 1.0 6.0 5 16
+ 0.125 2 3 cbr 1000 ------- 3 2.0 7.0 5 17
- 0.125 2 3 cbr 1000 ------- 3 2.0 7.0 5 17
r 0.1254 0 3 cbr 1000 ------- 1 0.0 5.0 3 9
+ 0.1254 3 4 cbr 1000 ------- 1 0.0 5.0 3 9
r 0.1254 1 3 cbr 1000 ------- 2 1.0 6.0 3 10
+ 0.1254 3 4 cbr 1000 ------- 2 1.0 6.0 3 10
r 0.1254 2 3 cbr 1000 ------- 3 2.0 7.0 3 11
+ 0.1254 3 4 cbr 1000 ------- 3 2.0 7.0 3 11
- 0.1264 3 4 cbr 1000 ------- 3 2.0 7.0 0 2
r 0.1284 3 4 cbr 1000 ------- 1 0.0 5.0 0 0
+ 0.1284 4 5 cbr 1000 ------- 1 0.0 5.0 0 0
- 0.1284 4 5 cbr 1000 ------- 1 0.0 5.0 0 0
+ 0.13 0 3 cbr 1000 ------- 1 0.0 5.0 6 18
- 0.13 0 3 cbr 1000 ------- 1 0.0 5.0 6 18
+ 0.13 1 3 cbr 1000 ------- 2 1.0 6.0 6 19
- 0.13 1 3 cbr 1000 ------- 2 1.0 6.0 6 19
+ 0.13 2 3 cbr 1000 ------- 3 2.0 7.0 6 20
- 0.13 2 3 cbr 1000 ------- 3 2.0 7.0 6 20
r 0.1304 0 3 cbr 1000 ------- 1 0.0 5.0 4 12
+ 0.1304 3 4 cbr 1000 ------- 1 0.0 5.0 4 12
r 0.1304 1 3 cbr 1000 ------- 2 1.0 6.0 4 13
+ 0.1304 3 4 cbr 1000 ------- 2 1.0 6.0 4 13
r 0.1304 2 3 cbr 1000 ------- 3 2.0 7.0 4 14
+ 0.1304 3 4 cbr 1000 ------- 3 2.0 7.0 4 14
- 0.1344 3 4 cbr 1000 ------- 1 0.0 5.0 1 3
+ 0.135 0 3 cbr 1000 ------- 1 0.0 5.0 7 21
- 0.135 0 3 cbr 1000 ------- 1 0.0 5.0 7 21
+ 0.135 1 3 cbr 1000 ------- 2 1.0 6.0 7 22
- 0.135 1 3 cbr 1000 ------- 2 1.0 6.0 7 22
+ 0.135 2 3 cbr 1000 ------- 3 2.0 7.0 7 23
- 0.135 2 3 cbr 1000 ------- 3 2.0 7.0 7 23
r 0.1354 0 3 cbr 1000 ------- 1 0.0 5.0 5 15
+ 0.1354 3 4 cbr 1000 ------- 1 0.0 5.0 5 15
r 0.1354 1 3 cbr 1000 ------- 2 1.0 6.0 5 16
+ 0.1354 3 4 cbr 1000 ------- 2 1.0 6.0 5 16
r 0.1354 2 3 cbr 1000 ------- 3 2.0 7.0 5 17
+ 0.1354 3 4 cbr 1000 ------- 3 2.0 7.0 5 17
r 0.1364 3 4 cbr 1000 ------- 2 1.0 6.0 0 1
+ 0.1364 4 6 cbr 1000 ------- 2 1.0 6.0 0 1
- 0.1364 4 6 cbr 1000 ------- 2 1.0 6.0 0 1
r 0.1388 4 5 cbr 1000 ------- 1 0.0 5.0 0 0
+ 0.14 0 3 cbr 1000 ------- 1 0.0 5.0 8 24
- 0.14 0 3 cbr 1000 ------- 1 0.0 5.0 8 24
+ 0.14 1 3 cbr 1000 ------- 2 1.0 6.0 8 25
- 0.14 1 3 cbr 1000 ------- 2 1.0 6.0 8 25
+ 0.14 2 3 cbr 1000 ------- 3 2.0 7.0 8 26
- 0.14 2 3 cbr 1000 ------- 3 2.0 7.0 8 26
r 0.1404 0 3 cbr 1000 ------- 1 0.0 5.0 6 18
+ 0.1404 3 4 cbr 1000 ------- 1 0.0 5.0 6 18
r 0.1404 1 3 cbr 1000 ------- 2 1.0 6.0 6 19
+ 0.1404 3 4 cbr 1000 ------- 2 1.0 6.0 6 19
r 0.1404 2 3 cbr 1000 ------- 3 2.0 7.0 6 20
+ 0.1404 3 4 cbr 1000 ------- 3 2.0 7.0 6 20
- 0.1424 3 4 cbr 1000 ------- 2 1.0 6.0 1 4
r 0.1444 3 4 cbr 1000 ------- 3 2.0 7.0 0 2
+ 0.1444 4 7 cbr 1000 ------- 3 2.0 7.0 0 2
- 0.1444 4 7 cbr 1000 ------- 3 2.0 7.0 0 2
+ 0.145 0 3 cbr 1000 ------- 1 0.0 5.0 9 27
- 0.145 0 3 cbr 1000 ------- 1 0.0 5.0 9 27
+ 0.145 1 3 cbr 1000 ------- 2 1.0 6.0 9 28
- 0.145 1 3 cbr 1000 ------- 2 1.0 6.0 9 28
+ 0.145 2 3 cbr 1000 ------- 3 2.0 7.0 9 29
- 0.145 2 3 cbr 1000 ------- 3 2.0 7.0 9 29
r 0.1454 0 3 cbr 1000 ------- 1 0.0 5.0 7 21
+ 0.1454 3 4 cbr 1000 ------- 1 0.0 5.0 7 21
r 0.1454 1 3 cbr 1000 ------- 2 1.0 6.0 7 22
+ 0.1454 3 4 cbr 1000 ------- 2 1.0 6.0 7 22
r 0.1454 2 3 cbr 1000 ------- 3 2.0 7.0 7 23
+ 0.1454 3 4 cbr 1000 ------- 3 2.0 7.0 7 23
r 0.1468 4 6 cbr 1000 ------- 2 1.0 6.0 0 1
+ 0.15 0 3 cbr 1000 ------- 1 0.0 5.0 10 30
- 0.15 0 3 cbr 1000 ------- 1 0.0 5.0 10 30
+ 0.15 1 3 cbr 1000 ------- 2 1.0 6.0 10 31
- 0.15 1 3 cbr 1000 ------- 2 1.0 6.0 10 31
+ 0.15 2 3 cbr 1000 ------- 3 2.0 7.0 10 32
- 0.15 2 3 cbr 1000 ------- 3 2.0 7.0 10 32
r 0.1504 0 3 cbr 1000 ------- 1 0.0 5.0 8 24
+ 0.1504 3 4 cbr 1000 ------- 1 0.0 5.0 8 24
r 0.1504 1 3 cbr 1000 ------- 2 1.0 6.0 8 25
+ 0.1504 3 4 cbr 1000 ------- 2 1.0 6.0 8 25
r 0.1504 2 3 cbr 1000 ------- 3 2.0 7.0 8 26
+ 0.1504 3 4 cbr 1000 ------- 3 2.0 7.0 8 26
- 0.1504 3 4 cbr 1000 ------- 3 2.0 7.0 1 5
r 0.1524 3 4 cbr 1000 ------- 1 0.0 5.0 1 3
+ 0.1524 4 5 cbr 1000 ------- 1 0.0 5.0 1 3
- 0.1524 4 5 cbr 1000 ------- 1 0.0 5.0 1 3
r 0.1548 4 7 cbr 1000 ------- 3 2.0 7.0 0 2
+ 0.155 0 3 cbr 1000 ------- 1 0.0 5.0 11 33
- 0.155 0 3 cbr 1000 ------- 1 0.0 5.0 11 33
+ 0.155 1 3 cbr 1000 ------- 2 1.0 6.0 11 34
- 0.155 1 3 cbr 1000 ------- 2 1.0 6.0 11 34
+ 0.155 2 3 cbr 1000 ------- 3 2.0 7.0 11 35
- 0.155 2 3 cbr 1000 ------- 3 2.0 7.0 11 35
r 0.1554 0 3 cbr 1000 ------- 1 0.0 5.0 9 27
+ 0.1554 3 4 cbr 1000 ------- 1 0.0 5.0 9 27
r 0.1554 1 3 cbr 1000 ------- 2 1.0 6.0 9 28
+ 0.1554 3 4 cbr 1000 ------- 2 1.0 6.0 9 28
r 0.1554 2 3 cbr 1000 ------- 3 2.0 7.0 9 29
+ 0.1554 3 4 cbr 1000 ------- 3 2.0 7.0 9 29
- 0.1584 3 4 cbr 1000 ------- 1 0.0 5.0 2 6
+ 0.16 0 3 cbr 1000 ------- 1 0.0 5.0 12 36
- 0.16 0 3 cbr 1000 ------- 1 0.0 5.0 12 36
+ 0.16 1 3 cbr 1000 ------- 2 1.0 6.0 12 37
- 0.16 1 3 cbr 1000 ------- 2 1.0 6.0 12 37
+ 0.16 2 3 cbr 1000 ------- 3 2.0 7.0 12 38
- 0.16 2 3 cbr 1000 ------- 3 2.0 7.0 12 38
r 0.1604 3 4 cbr 1000 ------- 2 1.0 6.0 1 4
+ 0.1604 4 6 cbr 1000 ------- 2 1.0 6.0 1 4
- 0.1604 4 6 cbr 1000 ------- 2 1.0 6.0 1 4
r 0.1604 0 3 cbr 1000 ------- 1 0.0 5.0 10 30
+ 0.1604 3 4 cbr 1000 ------- 1 0.0 5.0 10 30
r 0.1604 1 3 cbr 1000 ------- 2 1.0 6.0 10 31
+ 0.1604 3 4 cbr 1000 ------- 2 1.0 6.0 10 31
r 0.1604 2 3 cbr 1000 ------- 3 2.0 7.0 10 32
+ 0.1604 3 4 cbr 1000 ------- 3 2.0 7.0 10 32
d 0.1604 3 4 cbr 1000 ------- 3 2.0 7.0 10 32
r 0.1628 4 5 cbr 1000 ------- 1 0.0 5.0 1 3
+ 0.165 0 3 cbr 1000 ------- 1 0.0 5.0 13 39
- 0.165 0 3 cbr 1000 ------- 1 0.0 5.0 13 39
+ 0.165 1 3 cbr 1000 ------- 2 1.0 6.0 13 40
- 0.165 1 3 cbr 1000 ------- 2 1.0 6.0 13 40
+ 0.165 2 3 cbr 1000 ------- 3 2.0 7.0 13 41
- 0.165 2 3 cbr 1000 ------- 3 2.0 7.0 13 41
r 0.1654 0 3 cbr 1000 ------- 1 0.0 5.0 11 33
+ 0.1654 3 4 cbr 1000 ------- 1 0.0 5.0 11 33
d 0.1654 3 4 cbr 1000 ------- 1 0.0 5.0 11 33
r 0.1654 1 3 cbr 1000 ------- 2 1.0 6.0 11 34
+ 0.1654 3 4 cbr 1000 ------- 2 1.0 6.0 11 34
d 0.1654 3 4 cbr 1000 ------- 2 1.0 6.0 11 34
r 0.1654 2 3 cbr 1000 ------- 3 2.0 7.0 11 35
+ 0.1654 3 4 cbr 1000 ------- 3 2.0 7.0 11 35
d 0.1654 3 4 cbr 1000 ------- 3 2.0 7.0 11 35
- 0.1664 3 4 cbr 1000 ------- 2 1.0 6.0 2 7
r 0.1684 3 4 cbr 1000 ------- 3 2.0 7.0 1 5
+ 0.1684 4 7 cbr 1000 ------- 3 2.0 7.0 1 5
- 0.1684 4 7 cbr 1000 ------- 3 2.0 7.0 1 5
+ 0.17 0 3 cbr 1000 ------- 1 0.0 5.0 14 42
- 0.17 0 3 cbr 1000 ------- 1 0.0 5.0 14 42
+ 0.17 1 3 cbr 1000 ------- 2 1.0 6.0 14 43
- 0.17 1 3 cbr 1000 ------- 2 1.0 6.0 14 43
+ 0.17 2 3 cbr 1000 ------- 3 2.0 7.0 14 44
- 0.17 2 3 cbr 1000 ------- 3 2.0 7.0 14 44
r 0.1704 0 3 cbr 1000 ------- 1 0.0 5.0 12 36
+ 0.1704 3 4 cbr 1000 ------- 1 0.0 5.0 12 36
r 0.1704 1 3 cbr 1000 ------- 2 1.0 6.0 12 37
+ 0.1704 3 4 cbr 1000 ------- 2 1.0 6.0 12 37
d 0.1704 3 4 cbr 1000 ------- 2 1.0 6.0 12 37
r 0.1704 2 3 cbr 1000 ------- 3 2.0 7.0 12 38
+ 0.1704 3 4 cbr 1000 ------- 3 2.0 7.0 12 38
d 0.1704 3 4 cbr 1000 ------- 3 2.0 7.0 12 38
r 0.1708 4 6 cbr 1000 ------- 2 1.0 6.0 1 4
- 0.1744 3 4 cbr 1000 ------- 3 2.0 7.0 2 8
+ 0.175 0 3 cbr 1000 ------- 1 0.0 5.0 15 45
- 0.175 0 3 cbr 1000 ------- 1 0.0 5.0 15 45
+ 0.175 1 3 cbr 1000 ------- 2 1.0 6.0 15 46
- 0.175 1 3 cbr 1000 ------- 2 1.0 6.0 15 46
+ 0.175 2 3 cbr 1000 ------- 3 2.0 7.0 15 47
- 0.175 2 3 cbr 1000 ------- 3 2.0 7.0 15 47
r 0.1754 0 3 cbr 1000 ------- 1 0.0 5.0 13 39
+ 0.1754 3 4 cbr 1000 ------- 1 0.0 5.0 13 39
r 0.1754 1 3 cbr 1000 ------- 2 1.0 6.0 13 40
+ 0.1754 3 4 cbr 1000 ------- 2 1.0 6.0 13 40
d 0.1754 3 4 cbr 1000 ------- 2 1.0 6.0 13 40
r 0.1754 2 3 cbr 1000 ------- 3 2.0 7.0 13 41
+ 0.1754 3 4 cbr 1000 ------- 3 2.0 7.0 13 41
d 0.1754 3 4 cbr 1000 ------- 3 2.0 7.0 13 41
r 0.1764 3 4 cbr 1000 ------- 1 0.0 5.0 2 6
+ 0.1764 4 5 cbr 1000 ------- 1 0.0 5.0 2 6
- 0.1764 4 5 cbr 1000 ------- 1 0.0 5.0 2 6
r 0.1788 4 7 cbr 1000 ------- 3 2.0 7.0 1 5
+ 0.18 0 3 cbr 1000 ------- 1 0.0 5.0 16 48
- 0.18 0 3 cbr 1000 ------- 1 0.0 5.0 16 48
+ 0.18 1 3 cbr 1000 ------- 2 1.0 6.0 16 49
- 0.18 1 3 cbr 1000 ------- 2 1.0 6.0 16 49
+ 0.18 2 3 cbr 1000 ------- 3 2.0 7.0 16 50
- 0.18 2 3 cbr 1000 ------- 3 2.0 7.0 16 50
r 0.1804 0 3 cbr 1000 ------- 1 0.0 5.0 14 42
+ 0.1804 3 4 cbr 1000 ------- 1 0.0 5.0 14 42
d 0.1804 3 4 cbr 1000 ------- 1 0.0 5.0 14 42
r 0.1804 1 3 cbr 1000 ------- 2 1.0 6.0 14 43
+ 0.1804 3 4 cbr 1000 ------- 2 1.0 6.0 14 43
d 0.1804 3 4 cbr 1000 ------- 2 1.0 6.0 14 43
r 0.1804 2 3 cbr 1000 ------- 3 2.0 7.0 14 44
+ 0.1804 3 4 cbr 1000 ------- 3 2.0 7.0 14 44
d 0.1804 3 4 cbr 1000 ------- 3 2.0 7.0 14 44
- 0.1824 3 4 cbr 1000 ------- 1 0.0 5.0 3 9
r 0.1844 3 4 cbr 1000 ------- 2 1.0 6.0 2 7
+ 0.1844 4 6 cbr 1000 ------- 2 1.0 6.0 2 7
- 0.1844 4 6 cbr 1000 ------- 2 1.0 6.0 2 7
+ 0.185 0 3 cbr 1000 ------- 1 0.0 5.0 17 51
- 0.185 0 3 cbr 1000 ------- 1 0.0 5.0 17 51
+ 0.185 1 3 cbr 1000 ------- 2 1.0 6.0 17 52
- 0.185 1 3 cbr 1000 ------- 2 1.0 6.0 17 52
+ 0.185 2 3 cbr 1000 ------- 3 2.0 7.0 17 53
- 0.185 2 3 cbr 1000 ------- 3 2.0 7.0 17 53
r 0.1854 0 3 cbr 1000 ------- 1 0.0 5.0 15 45
+ 0.1854 3 4 cbr 1000 ------- 1 0.0 5.0 15 45
r 0.1854 1 3 cbr 1000 ------- 2 1.0 6.0 15 46
+ 0.1854 3 4 cbr 1000 ------- 2 1.0 6.0 15 46
d 0.1854 3 4 cbr 1000 ------- 2 1.0 6.0 15 46
r 0.1854 2 3 cbr 1000 ------- 3 2.0 7.0 15 47
+ 0.1854 3 4 cbr 1000 ------- 3 2.0 7.0 15 47
d 0.1854 3 4 cbr 1000 ------- 3 2.0 7.0 15 47
r 0.1868 4 5 cbr 1000 ------- 1 0.0 5.0 2 6
+ 0.19 0 3 cbr 1000 ------- 1 0.0 5.0 18 54
- 0.19 0 3 cbr 1000 ------- 1 0.0 5.0 18 54
+ 0.19 1 3 cbr 1000 ------- 2 1.0 6.0 18 55
- 0.19 1 3 cbr 1000 ------- 2 1.0 6.0 18 55
+ 0.19 2 3 cbr 1000 ------- 3 2.0 7.0 18 56
- 0.19 2 3 cbr 1000 ------- 3 2.0 7.0 18 56
r 0.1904 0 3 cbr 1000 ------- 1 0.0 5.0 16 48
+ 0.1904 3 4 cbr 1000 ------- 1 0.0 5.0 16 48
d 0.1904 3 4 cbr 1000 ------- 1 0.0 5.0 16 48
r 0.1904 1 3 cbr 1000 ------- 2 1.0 6.0 16 49
+ 0.1904 3 4 cbr 1000 ------- 2 1.0 6.0 16 49
d 0.1904 3 4 cbr 1000 ------- 2 1.0 6.0 16 49
r 0.1904 2 3 cbr 1000 ------- 3 2.0 7.0 16 50
+ 0.1904 3 4 cbr 1000 ------- 3 2.0 7.0 16 50
d 0.1904 3 4 cbr 1000 ------- 3 2.0 7.0 16 50
- 0.1904 3 4 cbr 1000 ------- 2 1.0 6.0 3 10
r 0.1924 3 4 cbr 1000 ------- 3 2.0 7.0 2 8
+ 0.1924 4 7 cbr 1000 ------- 3 2.0 7.0 2 8
- 0.1924 4 7 cbr 1000 ------- 3 2.0 7.0 2 8
r 0.1948 4 6 cbr 1000 ------- 2 1.0 6.0 2 7
+ 0.195 0 3 cbr 1000 ------- 1 0.0 5.0 19 57
- 0.195 0 3 cbr 1000 ------- 1 0.0 5.0 19 57
+ 0.195 1 3 cbr 1000 ------- 2 1.0 6.0 19 58
- 0.195 1 3 cbr 1000 ------- 2 1.0 6.0 19 58
+ 0.195 2 3 cbr 1000 ------- 3 2.0 7.0 19 59
- 0.195 2 3 cbr 1000 ------- 3 2.0 7.0 19 59
r 0.1954 0 3 cbr 1000 ------- 1 0.0 5.0 17 51
+ 0.1954 3 4 cbr 1000 ------- 1 0.0 5.0 17 51
r 0.1954 1 3 cbr 1000 ------- 2 1.0 6.0 17 52
+ 0.1954 3 4 cbr 1000 ------- 2 1.0 6.0 17 52
d 0.1954 3 4 cbr 1000 ------- 2 1.0 6.0 17 52
r 0.1954 2 3 cbr 1000 ------- 3 2.0 7.0 17 53
+ 0.1954 3 4 cbr 1000 ------- 3 2.0 7.0 17 53
d 0.1954 3 4 cbr 1000 ------- 3 2.0 7.0 17 53
- 0.1984 3 4 cbr 1000 ------- 3 2.0 7.0 3 11
+ 0.2 0 3 cbr 1000 ------- 1 0.0 5.0 20 60
- 0.2 0 3 cbr 1000 ------- 1 0.0 5.0 20 60
+ 0.2 1 3 cbr 1000 ------- 2 1.0 6.0 20 61
- 0.2 1 3 cbr 1000 ------- 2 1.0 6.0 20 61
+ 0.2 2 3 cbr 1000 ------- 3 2.0 7.0 20 62
- 0.2 2 3 cbr 1000 ------- 3 2.0 7.0 20 62
r 0.2004 3 4 cbr 1000 ------- 1 0.0 5.0 3 9
+ 0.2004 4 5 cbr 1000 ------- 1 0.0 5.0 3 9
- 0.2004 4 5 cbr 1000 ------- 1 0.0 5.0 3 9
r 0.2004 0 3 cbr 1000 ------- 1 0.0 5.0 18 54
+ 0.2004 3 4 cbr 1000 ------- 1 0.0 5.0 18 54
r 0.2004 1 3 cbr 1000 ------- 2 1.0 6.0 18 55
+ 0.2004 3 4 cbr 1000 ------- 2 1.0 6.0 18 55
d 0.2004 3 4 cbr 1000 ------- 2 1.0 6.0 18 55
r 0.2004 2 3 cbr 1000 ------- 3 2.0 7.0 18 56
+ 0.2004 3 4 cbr 1000 ------- 3 2.0 7.0 18 56
d 0.2004 3 4 cbr 1000 ------- 3 2.0 7.0 18 56
r 0.2028 4 7 cbr 1000 ------- 3 2.0 7.0 2 8
+ 0.205 0 3 cbr 1000 ------- 1 0.0 5.0 21 63
- 0.205 0 3 cbr 1000 ------- 1 0.0 5.0 21 63
+ 0.205 1 3 cbr 1000 ------- 2 1.0 6.0 21 64
- 0.205 1 3 cbr 1000 ------- 2 1.0 6.0 21 64
+ 0.205 2 3 cbr 1000 ------- 3 2.0 7.0 21 65
- 0.205 2 3 cbr 1000 ------- 3 2.0 7.0 21 65
r 0.2054 0 3 cbr 1000 ------- 1 0.0 5.0 19 57
+ 0.2054 3 4 cbr 1000 ------- 1 0.0 5.0 19 57
d 0.2054 3 4 cbr 1000 ------- 1 0.0 5.0 19 57
r 0.2054 1 3 cbr 1000 ------- 2 1.0 6.0 19 58
+ 0.2054 3 4 cbr 1000 ------- 2 1.0 6.0 19 58
d 0.2054 3 4 cbr 1000 ------- 2 1.0 6.0 19 58
r 0.2054 2 3 cbr 1000 ------- 3 2.0 7.0 19 59
+ 0.2054 3 4 cbr 1000 ------- 3 2.0 7.0 19 59
d 0.2054 3 4 cbr 1000 ------- 3 2.0 7.0 19 59
- 0.2064 3 4 cbr 1000 ------- 1 0.0 5.0 4 12
r 0.2084 3 4 cbr 1000 ------- 2 1.0 6.0 3 10
+ 0.2084 4 6 cbr 1000 ------- 2 1.0 6.0 3 10
- 0.2084 4 6 cbr 1000 ------- 2 1.0 6.0 3 10
+ 0.21 0 3 cbr 1000 ------- 1 0.0 5.0 22 66
- 0.21 0 3 cbr 1000 ------- 1 0.0 5.0 22 66
+ 0.21 1 3 cbr 1000 ------- 2 1.0 6.0 22 67
- 0.21 1 3 cbr 1000 ------- 2 1.0 6.0 22 67
+ 0.21 2 3 cbr 1000 ------- 3 2.0 7.0 22 68
- 0.21 2 3 cbr 1000 ------- 3 2.0 7.0 22 68
r 0.2104 0 3 cbr 1000 ------- 1 0.0 5.0 20 60
+ 0.2104 3 4 cbr 1000 ------- 1 0.0 5.0 20 60
r 0.2104 1 3 cbr 1000 ------- 2 1.0 6.0 20 61
+ 0.2104 3 4 cbr 1000 ------- 2 1.0 6.0 20 61
d 0.2104 3 4 cbr 1000 ------- 2 1.0 6.0 20 61
r 0.2104 2 3 cbr 1000 ------- 3 2.0 7.0 20 62
+ 0.2104 3 4 cbr 1000 ------- 3 2.0 7.0 20 62
d 0.2104 3 4 cbr 1000 ------- 3 2.0 7.0 20 62
r 0.2108 4 5 cbr 1000 ------- 1 0.0 5.0 3 9
- 0.2144 3 4 cbr 1000 ------- 2 1.0 6.0 4 13
+ 0.215 0 3 cbr 1000 ------- 1 0.0 5.0 23 69
- 0.215 0 3 cbr 1000 ------- 1 0.0 5.0 23 69
+ 0.215 1 3 cbr 1000 ------- 2 1.0 6.0 23 70
- 0.215 1 3 cbr 1000 ------- 2 1.0 6.0 23 70
+ 0.215 2 3 cbr 1000 ------- 3 2.0 7.0 23 71
- 0.215 2 3 cbr 1000 ------- 3 2.0 7.0 23 71
r 0.2154 0 3 cbr 1000 ------- 1 0.0 5.0 21 63
+ 0.2154 3 4 cbr 1000 ------- 1 0.0 5.0 21 63
r 0.2154 1 3 cbr 1000 ------- 2 1.0 6.0 21 64
+ 0.2154 3 4 cbr 1000 ------- 2 1.0 6.0 21 64
d 0.2154 3 4 cbr 1000 ------- 2 1.0 6.0 21 64
r 0.2154 2 3 cbr 1000 ------- 3 2.0 7.0 21 65
+ 0.2154 3 4 cbr 1000 ------- 3 2.0 7.0 21 65
d 0.2154 3 4 cbr 1000 ------- 3 2.0 7.0 21 65
r 0.2164 3 4 cbr 1000 ------- 3 2.0 7.0 3 11
+ 0.2164 4 7 cbr 1000 ------- 3 2.0 7.0 3 11
- 0.2164 4 7 cbr 1000 ------- 3 2.0 7.0 3 11
r 0.2188 4 6 cbr 1000 ------- 2 1.0 6.0 3 10
+ 0.22 0 3 cbr 1000 ------- 1 0.0 5.0 24 72
- 0.22 0 3 cbr 1000 ------- 1 0.0 5.0 24 72
+ 0.22 1 3 cbr 1000 ------- 2 1.0 6.0 24 73
- 0.22 1 3 cbr 1000 ------- 2 1.0 6.0 24 73
+ 0.22 2 3 cbr 1000 ------- 3 2.0 7.0 24 74
- 0.22 2 3 cbr 1000 ------- 3 2.0 7.0 24 74
r 0.2204 0 3 cbr 1000 ------- 1 0.0 5.0 22 66
+ 0.2204 3 4 cbr 1000 ------- 1 0.0 5.0 22 66
d 0.2204 3 4 cbr 1000 ------- 1 0.0 5.0 22 66
r 0.2204 1 3 cbr 1000 ------- 2 1.0 6.0 22 67
+ 0.2204 3 4 cbr 1000 ------- 2 1.0 6.0 22 67
d 0.2204 3 4 cbr 1000 ------- 2 1.0 6.0 22 67
r 0.2204 2 3 cbr 1000 ------- 3 2.0 7.0 22 68
+ 0.2204 3 4 cbr 1000 ------- 3 2.0 7.0 22 68
d 0.2204 3 4 cbr 1000 ------- 3 2.0 7.0 22 68
- 0.2224 3 4 cbr 1000 ------- 3 2.0 7.0 4 14
r 0.2244 3 4 cbr 1000 ------- 1 0.0 5.0 4 12
+ 0.2244 4 5 cbr 1000 ------- 1 0.0 5.0 4 12
- 0.2244 4 5 cbr 1000 ------- 1 0.0 5.0 4 12
+ 0.225 0 3 cbr 1000 ------- 1 0.0 5.0 25 75
- 0.225 0 3 cbr 1000 ------- 1 0.0 5.0 25 75
+ 0.225 1 3 cbr 1000 ------- 2 1.0 6.0 25 76
- 0.225 1 3 cbr 1000 ------- 2 1.0 6.0 25 76
+ 0.225 2 3 cbr 1000 ------- 3 2.0 7.0 25 77
- 0.225 2 3 cbr 1000 ------- 3 2.0 7.0 25 77
r 0.2254 0 3 cbr 1000 ------- 1 0.0 5.0 23 69
+ 0.2254 3 4 cbr 1000 ------- 1 0.0 5.0 23 69
r 0.2254 1 3 cbr 1000 ------- 2 1.0 6.0 23 70
+ 0.2254 3 4 cbr 1000 ------- 2 1.0 6.0 23 70
d 0.2254 3 4 cbr 1000 ------- 2 1.0 6.0 23 70
r 0.2254 2 3 cbr 1000 ------- 3 2.0 7.0 23 71
+ 0.2254 3 4 cbr 1000 ------- 3 2.0 7.0 23 71
d 0.2254 3 4 cbr 1000 ------- 3 2.0 7.0 23 71
r 0.2268 4 7 cbr 1000 ------- 3 2.0 7.0 3 11
+ 0.23 0 3 cbr 1000 ------- 1 0.0 5.0 26 78
- 0.23 0 3 cbr 1000 ------- 1 0.0 5.0 26 78
+ 0.23 1 3 cbr 1000 ------- 2 1.0 6.0 26 79
- 0.23 1 3 cbr 1000 ------- 2 1.0 6.0 26 79
+ 0.23 2 3 cbr 1000 ------- 3 2.0 7.0 26 80
- 0.23 2 3 cbr 1000 ------- 3 2.0 7.0 26 80
r 0.2304 0 3 cbr 1000 ------- 1 0.0 5.0 24 72
+ 0.2304 3 4 cbr 1000 ------- 1 0.0 5.0 24 72
d 0.2304 3 4 cbr 1000 ------- 1 0.0 5.0 24 72
r 0.2304 1 3 cbr 1000 ------- 2 1.0 6.0 24 73
+ 0.2304 3 4 cbr 1000 ------- 2 1.0 6.0 24 73
d 0.2304 3 4 cbr 1000 ------- 2 1.0 6.0 24 73
r 0.2304 2 3 cbr 1000 ------- 3 2.0 7.0 24 74
+ 0.2304 3 4 cbr 1000 ------- 3 2.0 7.0 24 74
d 0.2304 3 4 cbr 1000 ------- 3 2.0 7.0 24 74
- 0.2304 3 4 cbr 1000 ------- 1 0.0 5.0 5 15
r 0.2324 3 4 cbr 1000 ------- 2 1.0 6.0 4 13
+ 0.2324 4 6 cbr 1000 ------- 2 1.0 6.0 4 13
- 0.2324 4 6 cbr 1000 ------- 2 1.0 6.0 4 13
r 0.2348 4 5 cbr 1000 ------- 1 0.0 5.0 4 12
+ 0.235 0 3 cbr 1000 ------- 1 0.0 5.0 27 81
- 0.235 0 3 cbr 1000 ------- 1 0.0 5.0 27 81
+ 0.235 1 3 cbr 1000 ------- 2 1.0 6.0 27 82
- 0.235 1 3 cbr 1000 ------- 2 1.0 6.0 27 82
+ 0.235 2 3 cbr 1000 ------- 3 2.0 7.0 27 83
- 0.235 2 3 cbr 1000 ------- 3 2.0 7.0 27 83
r 0.2354 0 3 cbr 1000 ------- 1 0.0 5.0 25 75
+ 0.2354 3 4 cbr 1000 ------- 1 0.0 5.0 25 75
r 0.2354 1 3 cbr 1000 ------- 2 1.0 6.0 25 76
+ 0.2354 3 4 cbr 1000 ------- 2 1.0 6.0 25 76
d 0.2354 3 4 cbr 1000 ------- 2 1.0 6.0 25 76
r 0.2354 2 3 cbr 1000 ------- 3 2.0 7.0 25 77
+ 0.2354 3 4 cbr 1000 ------- 3 2.0 7.0 25 77
d 0.2354 3 4 cbr 1000 ------- 3 2.0 7.0 25 77
- 0.2384 3 4 cbr 1000 ------- 2 1.0 6.0 5 16
+ 0.24 0 3 cbr 1000 ------- 1 0.0 5.0 28 84
- 0.24 0 3 cbr 1000 ------- 1 0.0 5.0 28 84
+ 0.24 1 3 cbr 1000 ------- 2 1.0 6.0 28 85
- 0.24 1 3 cbr 1000 ------- 2 1.0 6.0 28 85
+ 0.24 2 3 cbr 1000 ------- 3 2.0 7.0 28 86
- 0.24 2 3 cbr 1000 ------- 3 2.0 7.0 28 86
r 0.2404 3 4 cbr 1000 ------- 3 2.0 7.0 4 14
+ 0.2404 4 7 cbr 1000 ------- 3 2.0 7.0 4 14
- 0.2404 4 7 cbr 1000 ------- 3 2.0 7.0 4 14
r 0.2404 0 3 cbr 1000 ------- 1 0.0 5.0 26 78
+ 0.2404 3 4 cbr 1000 ------- 1 0.0 5.0 26 78
r 0.2404 1 3 cbr 1000 ------- 2 1.0 6.0 26 79
+ 0.2404 3 4 cbr 1000 ------- 2 1.0 6.0 26 79
d 0.2404 3 4 cbr 1000 ------- 2 1.0 6.0 26 79
r 0.2404 2 3 cbr 1000 ------- 3 2.0 7.0 26 80
+ 0.2404 3 4 cbr 1000 ------- 3 2.0 7.0 26 80
d 0.2404 3 4 cbr 1000 ------- 3 2.0 7.0 26 80
r 0.2428 4 6 cbr 1000 ------- 2 1.0 6.0 4 13
+ 0.245 0 3 cbr 1000 ------- 1 0.0 5.0 29 87
- 0.245 0 3 cbr 1000 ------- 1 0.0 5.0 29 87
+ 0.245 1 3 cbr 1000 ------- 2 1.0 6.0 29 88
- 0.245 1 3 cbr 1000 ------- 2 1.0 6.0 29 88
+ 0.245 2 3 cbr 1000 ------- 3 2.0 7.0 29 89
- 0.245 2 3 cbr 1000 ------- 3 2.0 7.0 29 89
r 0.2454 0 3 cbr 1000 ------- 1 0.0 5.0 27 81
+ 0.2454 3 4 cbr 1000 ------- 1 0.0 5.0 27 81
d 0.2454 3 4 cbr 1000 ------- 1 0.0 5.0 27 81
r 0.2454 1 3 cbr 1000 ------- 2 1.0 6.0 27 82
+ 0.2454 3 4 cbr 1000 ------- 2 1.0 6.0 27 82
d 0.2454 3 4 cbr 1000 ------- 2 1.0 6.0 27 82
r 0.2454 2 3 cbr 1000 ------- 3 2.0 7.0 27 83
+ 0.2454 3 4 cbr 1000 ------- 3 2.0 7.0 27 83
d 0.2454 3 4 cbr 1000 ------- 3 2.0 7.0 27 83
- 0.2464 3 4 cbr 1000 ------- 3 2.0 7.0 5 17
r 0.2484 3 4 cbr 1000 ------- 1 0.0 5.0 5 15
+ 0.2484 4 5 cbr 1000 ------- 1 0.0 5.0 5 15
- 0.2484 4 5 cbr 1000 ------- 1 0.0 5.0 5 15
+ 0.25 0 3 cbr 1000 ------- 1 0.0 5.0 30 90
- 0.25 0 3 cbr 1000 ------- 1 0.0 5.0 30 90
+ 0.25 1 3 cbr 1000 ------- 2 1.0 6.0 30 91
- 0.25 1 3 cbr 1000 ------- 2 1.0 6.0 30 91
+ 0.25 2 3 cbr 1000 ------- 3 2.0 7.0 30 92
- 0.25 2 3 cbr 1000 ------- 3 2.0 7.0 30 92
r 0.2504 0 3 cbr 1000 ------- 1 0.0 5.0 28 84
+ 0.2504 3 4 cbr 1000 ------- 1 0.0 5.0 28 84
r 0.2504 1 3 cbr 1000 ------- 2 1.0 6.0 28 85
+ 0.2504 3 4 cbr 1000 ------- 2 1.0 6.0 28 85
d 0.2504 3 4 cbr 1000 ------- 2 1.0 6.0 28 85
r 0.2504 2 3 cbr 1000 ------- 3 2.0 7.0 28 86
+ 0.2504 3 4 cbr 1000 ------- 3 2.0 7.0 28 86
d 0.2504 3 4 cbr 1000 ------- 3 2.0 7.0 28 86
r 0.2508 4 7 cbr 1000 ------- 3 2.0 7.0 4 14
- 0.2544 3 4 cbr 1000 ------- 1 0.0 5.0 6 18
+ 0.255 0 3 cbr 1000 ------- 1 0.0 5.0 31 93
- 0.255 0 3 cbr 1000 ------- 1 0.0 5.0 31 93
+ 0.255 1 3 cbr 1000 ------- 2 1.0 6.0 31 94
- 0.255 1 3 cbr 1000 ------- 2 1.0 6.0 31 94
+ 0.255 2 3 cbr 1000 ------- 3 2.0 7.0 31 95
- 0.255 2 3 cbr 1000 ------- 3 2.0 7.0 31 95
r 0.2554 0 3 cbr 1000 ------- 1 0.0 5.0 29 87
+ 0.2554 3 4 cbr 1000 ------- 1 0.0 5.0 29 87
r 0.2554 1 3 cbr 1000 ------- 2 1.0 6.0 29 88
+ 0.2554 3 4 cbr 1000 ------- 2 1.0 6.0 29 88
d 0.2554 3 4 cbr 1000 ------- 2 1.0 6.0 29 88
r 0.2554 2 3 cbr 1000 ------- 3 2.0 7.0 29 89
+ 0.2554 3 4 cbr 1000 ------- 3 2.0 7.0 29 89
d 0.2554 3 4 cbr 1000 ------- 3 2.0 7.0 29 89
r 0.2564 3 4 cbr 1000 ------- 2 1.0 6.0 5 16
+ 0.2564 4 6 cbr 1000 ------- 2 1.0 6.0 5 16
- 0.2564 4 6 cbr 1000 ------- 2 1.0 6.0 5 16
r 0.2588 4 5 cbr 1000 ------- 1 0.0 5.0 5 15
+ 0.26 0 3 cbr 1000 ------- 1 0.0 5.0 32 96
- 0.26 0 3 cbr 1000 ------- 1 0.0 5.0 32 96
+ 0.26 1 3 cbr 1000 ------- 2 1.0 6.0 32 97
- 0.26 1 3 cbr 1000 ------- 2 1.0 6.0 32 97
+ 0.26 2 3 cbr 1000 ------- 3 2.0 7.0 32 98
- 0.26 2 3 cbr 1000 ------- 3 2.0 7.0 32 98
r 0.2604 0 3 cbr 1000 ------- 1 0.0 5.0 30 90
+ 0.2604 3 4 cbr 1000 ------- 1 0.0 5.0 30 90
d 0.2604 3 4 cbr 1000 ------- 1 0.0 5.0 30 90
r 0.2604 1 3 cbr 1000 ------- 2 1.0 6.0 30 91
+ 0.2604 3 4 cbr 1000 ------- 2 1.0 6.0 30 91
d 0.2604 3 4 cbr 1000 ------- 2 1.0 6.0 30 91
r 0.2604 2 3 cbr 1000 ------- 3 2.0 7.0 30 92
+ 0.2604 3 4 cbr 1000 ------- 3 2.0 7.0 30 92
d 0.2604 3 4 cbr 1000 ------- 3 2.0 7.0 30 92
- 0.2624 3 4 cbr 1000 ------- 2 1.0 6.0 6 19
r 0.2644 3 4 cbr 1000 ------- 3 2.0 7.0 5 17
+ 0.2644 4 7 cbr 1000 ------- 3 2.0 7.0 5 17
- 0.2644 4 7 cbr 1000 ------- 3 2.0 7.0 5 17
+ 0.265 0 3 cbr 1000 ------- 1 0.0 5.0 33 99
- 0.265 0 3 cbr 1000 ------- 1 0.0 5.0 33 99
+ 0.265 1 3 cbr 1000 ------- 2 1.0 6.0 33 100
- 0.265 1 3 cbr 1000 ------- 2 1.0 6.0 33 100
+ 0.265 2 3 cbr 1000 ------- 3 2.0 7.0 33 101
- 0.265 2 3 cbr 1000 ------- 3 2.0 7.0 33 101
r 0.2654 0 3 cbr 1000 ------- 1 0.0 5.0 31 93
+ 0.2654 3 4 cbr 1000 ------- 1 0.0 5.0 31 93
r 0.2654 1 3 cbr 1000 ------- 2 1.0 6.0 31 94
+ 0.2654 3 4 cbr 1000 ------- 2 1.0 6.0 31 94
d 0.2654 3 4 cbr 1000 ------- 2 1.0 6.0 31 94
r 0.2654 2 3 cbr 1000 ------- 3 2.0 7.0 31 95
+ 0.2654 3 4 cbr 1000 ------- 3 2.0 7.0 31 95
d 0.2654 3 4 cbr 1000 ------- 3 2.0 7.0 31 95
r 0.2668 4 6 cbr 1000 ------- 2 1.0 6.0 5 16
+ 0.27 0 3 cbr 1000 ------- 1 0.0 5.0 34 102
- 0.27 0 3 cbr 1000 ------- 1 0.0 5.0 34 102
+ 0.27 1 3 cbr 1000 ------- 2 1.0 6.0 34 103
- 0.27 1 3 cbr 1000 ------- 2 1.0 6.0 34 103
+ 0.27 2 3 cbr 1000 ------- 3 2.0 7.0 34 104
- 0.27 2 3 cbr 1000 ------- 3 2.0 7.0 34 104
r 0.2704 0 3 cbr 1000 ------- 1 0.0 5.0 32 96
+ 0.2704 3 4 cbr 1000 ------- 1 0.0 5.0 32 96
d 0.2704 3 4 cbr 1000 ------- 1 0.0 5.0 32 96
r 0.2704 1 3 cbr 1000 ------- 2 1.0 6.0 32 97
+ 0.2704 3 4 cbr 1000 ------- 2 1.0 6.0 32 97
d 0.2704 3 4 cbr 1000 ------- 2 1.0 6.0 32 97
r 0.2704 2 3 cbr 1000 ------- 3 2.0 7.0 32 98
+ 0.2704 3 4 cbr 1000 ------- 3 2.0 7.0 32 98
d 0.2704 3 4 cbr 1000 ------- 3 2.0 7.0 32 98
- 0.2704 3 4 cbr 1000 ------- 3 2.0 7.0 6 20
r 0.2724 3 4 cbr 1000 ------- 1 0.0 5.0 6 18
+ 0.2724 4 5 cbr 1000 ------- 1 0.0 5.0 6 18
- 0.2724 4 5 cbr 1000 ------- 1 0.0 5.0 6 18
r 0.2748 4 7 cbr 1000 ------- 3 2.0 7.0 5 17
+ 0.275 0 3 cbr 1000 ------- 1 0.0 5.0 35 105
- 0.275 0 3 cbr 1000 ------- 1 0.0 5.0 35 105
+ 0.275 1 3 cbr 1000 ------- 2 1.0 6.0 35 106
- 0.275 1 3 cbr 1000 ------- 2 1.0 6.0 35 106
+ 0.275 2 3 cbr 1000 ------- 3 2.0 7.0 35 107
- 0.275 2 3 cbr 1000 ------- 3 2.0 7.0 35 107
r 0.2754 0 3 cbr 1000 ------- 1 0.0 5.0 33 99
+ 0.2754 3 4 cbr 1000 ------- 1 0.0 5.0 33 99
r 0.2754 1 3 cbr 1000 ------- 2 1.0 6.0 33 100
+ 0.2754 3 4 cbr 1000 ------- 2 1.0 6.0 33 100
d 0.2754 3 4 cbr 1000 ------- 2 1.0 6.0 33 100
r 0.2754 2 3 cbr 1000 ------- 3 2.0 7.0 33 101
+ 0.2754 3 4 cbr 1000 ------- 3 2.0 7.0 33 101
d 0.2754 3 4 cbr 1000 ------- 3 2.0 7.0 33 101
- 0.2784 3 4 cbr 1000 ------- 1 0.0 5.0 7 21
+ 0.28 0 3 cbr 1000 ------- 1 0.0 5.0 36 108
- 0.28 0 3 cbr 1000 ------- 1 0.0 5.0 36 108
+ 0.28 1 3 cbr 1000 ------- 2 1.0 6.0 36 109
- 0.28 1 3 cbr 1000 ------- 2 1.0 6.0 36 109
+ 0.28 2 3 cbr 1000 ------- 3 2.0 7.0 36 110
- 0.28 2 3 cbr 1000 ------- 3 2.0 7.0 36 110
r 0.2804 3 4 cbr 1000 ------- 2 1.0 6.0 6 19
+ 0.2804 4 6 cbr 1000 ------- 2 1.0 6.0 6 19
- 0.2804 4 6 cbr 1000 ------- 2 1.0 6.0 6 19
r 0.2804 0 3 cbr 1000 ------- 1 0.0 5.0 34 102
+ 0.2804 3 4 cbr 1000 ------- 1 0.0 5.0 34 102
r 0.2804 1 3 cbr 1000 ------- 2 1.0 6.0 34 103
+ 0.2804 3 4 cbr 1000 ------- 2 1.0 6.0 34 103
d 0.2804 3 4 cbr 1000 ------- 2 1.0 6.0 34 103
r 0.2804 2 3 cbr 1000 ------- 3 2.0 7.0 34 104
+ 0.2804 3 4 cbr 1000 ------- 3 2.0 7.0 34 104
d 0.2804 3 4 cbr 1000 ------- 3 2.0 7.0 34 104
r 0.2828 4 5 cbr 1000 ------- 1 0.0 5.0 6 18
+ 0.285 0 3 cbr 1000 ------- 1 0.0 5.0 37 111
- 0.285 0 3 cbr 1000 ------- 1 0.0 5.0 37 111
+ 0.285 1 3 cbr 1000 ------- 2 1.0 6.0 37 112
- 0.285 1 3 cbr 1000 ------- 2 1.0 6.0 37 112
+ 0.285 2 3 cbr 1000 ------- 3 2.0 7.0 37 113
- 0.285 2 3 cbr 1000 ------- 3 2.0 7.0 37 113
r 0.2854 0 3 cbr 1000 ------- 1 0.0 5.0 35 105
+ 0.2854 3 4 cbr 1000 ------- 1 0.0 5.0 35 105
d 0.2854 3 4 cbr 1000 ------- 1 0.0 5.0 35 105
r 0.2854 1 3 cbr 1000 ------- 2 1.0 6.0 35 106
+ 0.2854 3 4 cbr 1000 ------- 2 1.0 6.0 35 106
d 0.2854 3 4 cbr 1000 ------- 2 1.0 6.0 35 106
r 0.2854 2 3 cbr 1000 ------- 3 2.0 7.0 35 107
+ 0.2854 3 4 cbr 1000 ------- 3 2.0 7.0 35 107
d 0.2854 3 4 cbr 1000 ------- 3 2.0 7.0 35 107
- 0.2864 3 4 cbr 1000 ------- 2 1.0 6.0 7 22
r 0.2884 3 4 cbr 1000 ------- 3 2.0 7.0 6 20
+ 0.2884 4 7 cbr 1000 ------- 3 2.0 7.0 6 20
- 0.2884 4 7 cbr 1000 ------- 3 2.0 7.0 6 20
+ 0.29 0 3 cbr 1000 ------- 1 0.0 5.0 38 114
- 0.29 0 3 cbr 1000 ------- 1 0.0 5.0 38 114
+ 0.29 1 3 cbr 1000 ------- 2 1.0 6.0 38 115
- 0.29 1 3 cbr 1000 ------- 2 1.0 6.0 38 115
+ 0.29 2 3 cbr 1000 ------- 3 2.0 7.0 38 116
- 0.29 2 3 cbr 1000 ------- 3 2.0 7.0 38 116
r 0.2904 0 3 cbr 1000 ------- 1 0.0 5.0 36 108
+ 0.2904 3 4 cbr 1000 ------- 1 0.0 5.0 36 108
r 0.2904 1 3 cbr 1000 ------- 2 1.0 6.0 36 109
+ 0.2904 3 4 cbr 1000 ------- 2 1.0 6.0 36 109
d 0.2904 3 4 cbr 1000 ------- 2 1.0 6.0 36 109
r 0.2904 2 3 cbr 1000 ------- 3 2.0 7.0 36 110
+ 0.2904 3 4 cbr 1000 ------- 3 2.0 7.0 36 110
d 0.2904 3 4 cbr 1000 ------- 3 2.0 7.0 36 110
r 0.2908 4 6 cbr 1000 ------- 2 1.0 6.0 6 19
- 0.2944 3 4 cbr 1000 ------- 3 2.0 7.0 7 23
+ 0.295 0 3 cbr 1000 ------- 1 0.0 5.0 39 117
- 0.295 0 3 cbr 1000 ------- 1 0.0 5.0 39 117
+ 0.295 1 3 cbr 1000 ------- 2 1.0 6.0 39 118
- 0.295 1 3 cbr 1000 ------- 2 1.0 6.0 39 118
+ 0.295 2 3 cbr 1000 ------- 3 2.0 7.0 39 119
- 0.295 2 3 cbr 1000 ------- 3 2.0 7.0 39 119
r 0.2954 0 3 cbr 1000 ------- 1 0.0 5.0 37 111
+ 0.2954 3 4 cbr 1000 ------- 1 0.0 5.0 37 111
r 0.2954 1 3 cbr 1000 ------- 2 1.0 6.0 37 112
+ 0.2954 3 4 cbr 1000 ------- 2 1.0 6.0 37 112
d 0.2954 3 4 cbr 1000 ------- 2 1.0 6.0 37 112
r 0.2954 2 3 cbr 1000 ------- 3 2.0 7.0 37 113
+ 0.2954 3 4 cbr 1000 ------- 3 2.0 7.0 37 113
d 0.2954 3 4 cbr 1000 ------- 3 2.0 7.0 37 113
r 0.2964 3 4 cbr 1000 ------- 1 0.0 5.0 7 21
+ 0.2964 4 5 cbr 1000 ------- 1 0.0 5.0 7 21
- 0.2964 4 5 cbr 1000 ------- 1 0.0 5.0 7 21
r 0.2988 4 7 cbr 1000 ------- 3 2.0 7.0 6 20
+ 0.3 0 3 cbr 1000 ------- 1 0.0 5.0 40 120
- 0.3 0 3 cbr 1000 ------- 1 0.0 5.0 40 120
+ 0.3 1 3 cbr 1000 ------- 2 1.0 6.0 40 121
- 0.3 1 3 cbr 1000 ------- 2 1.0 6.0 40 121
+ 0.3 2 3 cbr 1000 ------- 3 2.0 7.0 40 122
- 0.3 2 3 cbr 1000 ------- 3 2.0 7.0 40 122
r 0.3004 0 3 cbr 1000 ------- 1 0.0 5.0 38 114
+ 0.3004 3 4 cbr 1000 ------- 1 0.0 5.0 38 114
d 0.3004 3 4 cbr 1000 ------- 1 0.0 5.0 38 114
r 0.3004 1 3 cbr 1000 ------- 2 1.0 6.0 38 115
+ 0.3004 3 4 cbr 1000 ------- 2 1.0 6.0 38 115
d 0.3004 3 4 cbr 1000 ------- 2 1.0 6.0 38 115
r 0.3004 2 3 cbr 1000 ------- 3 2.0 7.0 38 116
+ 0.3004 3 4 cbr 1000 ------- 3 2.0 7.0 38 116
d 0.3004 3 4 cbr 1000 ------- 3 2.0 7.0 38 116
- 0.3024 3 4 cbr 1000 ------- 1 0.0 5.0 8 24
r 0.3044 3 4 cbr 1000 ------- 2 1.0 6.0 7 22
+ 0.3044 4 6 cbr 1000 ------- 2 1.0 6.0 7 22
- 0.3044 4 6 cbr 1000 ------- 2 1.0 6.0 7 22
+ 0.305 0 3 cbr 1000 ------- 1 0.0 5.0 41 123
- 0.305 0 3 cbr 1000 ------- 1 0.0 5.0 41 123