+ 0.5 0 3 cbr 210 ------- 1 0.0 5.0 0 0
- 0.5 0 3 cbr 210 ------- 1 0.0 5.0 0 0
+ 0.5 1 3 cbr 210 ------- 2 1.0 6.0 0 1
- 0.5 1 3 cbr 210 ------- 2 1.0 6.0 0 1
+ 0.50375 0 3 cbr 210 ------- 1 0.0 5.0 1 2
- 0.50375 0 3 cbr 210 ------- 1 0.0 5.0 1 2
+ 0.50375 1 3 cbr 210 ------- 2 1.0 6.0 1 3
- 0.50375 1 3 cbr 210 ------- 2 1.0 6.0 1 3
+ 0.5075 0 3 cbr 210 ------- 1 0.0 5.0 2 4
- 0.5075 0 3 cbr 210 ------- 1 0.0 5.0 2 4
+ 0.5075 1 3 cbr 210 ------- 2 1.0 6.0 2 5
- 0.5075 1 3 cbr 210 ------- 2 1.0 6.0 2 5
+ 0.51125 0 3 cbr 210 ------- 1 0.0 5.0 3 6
- 0.51125 0 3 cbr 210 ------- 1 0.0 5.0 3 6
+ 0.51125 1 3 cbr 210 ------- 2 1.0 6.0 3 7
- 0.51125 1 3 cbr 210 ------- 2 1.0 6.0 3 7
r 0.51168 0 3 cbr 210 ------- 1 0.0 5.0 0 0
+ 0.51168 3 4 cbr 210 ------- 1 0.0 5.0 0 0
- 0.51168 3 4 cbr 210 ------- 1 0.0 5.0 0 0
r 0.51168 1 3 cbr 210 ------- 2 1.0 6.0 0 1
+ 0.51168 3 4 cbr 210 ------- 2 1.0 6.0 0 1
- 0.51336 3 4 cbr 210 ------- 2 1.0 6.0 0 1
+ 0.515 0 3 cbr 210 ------- 1 0.0 5.0 4 8
- 0.515 0 3 cbr 210 ------- 1 0.0 5.0 4 8
+ 0.515 1 3 cbr 210 ------- 2 1.0 6.0 4 9
- 0.515 1 3 cbr 210 ------- 2 1.0 6.0 4 9
r 0.51543 0 3 cbr 210 ------- 1 0.0 5.0 1 2
+ 0.51543 3 4 cbr 210 ------- 1 0.0 5.0 1 2
- 0.51543 3 4 cbr 210 ------- 1 0.0 5.0 1 2
r 0.51543 1 3 cbr 210 ------- 2 1.0 6.0 1 3
+ 0.51543 3 4 cbr 210 ------- 2 1.0 6.0 1 3
- 0.51711 3 4 cbr 210 ------- 2 1.0 6.0 1 3
+ 0.51875 0 3 cbr 210 ------- 1 0.0 5.0 5 10
- 0.51875 0 3 cbr 210 ------- 1 0.0 5.0 5 10
+ 0.51875 1 3 cbr 210 ------- 2 1.0 6.0 5 11
- 0.51875 1 3 cbr 210 ------- 2 1.0 6.0 5 11
r 0.51918 0 3 cbr 210 ------- 1 0.0 5.0 2 4
+ 0.51918 3 4 cbr 210 ------- 1 0.0 5.0 2 4
- 0.51918 3 4 cbr 210 ------- 1 0.0 5.0 2 4
r 0.51918 1 3 cbr 210 ------- 2 1.0 6.0 2 5
+ 0.51918 3 4 cbr 210 ------- 2 1.0 6.0 2 5
- 0.52086 3 4 cbr 210 ------- 2 1.0 6.0 2 5
+ 0.5225 0 3 cbr 210 ------- 1 0.0 5.0 6 12
- 0.5225 0 3 cbr 210 ------- 1 0.0 5.0 6 12
+ 0.5225 1 3 cbr 210 ------- 2 1.0 6.0 6 13
- 0.5225 1 3 cbr 210 ------- 2 1.0 6.0 6 13
r 0.52293 0 3 cbr 210 ------- 1 0.0 5.0 3 6
+ 0.52293 3 4 cbr 210 ------- 1 0.0 5.0 3 6
- 0.52293 3 4 cbr 210 ------- 1 0.0 5.0 3 6
r 0.52293 1 3 cbr 210 ------- 2 1.0 6.0 3 7
+ 0.52293 3 4 cbr 210 ------- 2 1.0 6.0 3 7
r 0.52336 3 4 cbr 210 ------- 1 0.0 5.0 0 0
+ 0.52336 4 5 cbr 210 ------- 1 0.0 5.0 0 0
- 0.52336 4 5 cbr 210 ------- 1 0.0 5.0 0 0
- 0.52461 3 4 cbr 210 ------- 2 1.0 6.0 3 7
r 0.52504 3 4 cbr 210 ------- 2 1.0 6.0 0 1
+ 0.52504 4 6 cbr 210 ------- 2 1.0 6.0 0 1
- 0.52504 4 6 cbr 210 ------- 2 1.0 6.0 0 1
+ 0.52625 0 3 cbr 210 ------- 1 0.0 5.0 7 14
- 0.52625 0 3 cbr 210 ------- 1 0.0 5.0 7 14
+ 0.52625 1 3 cbr 210 ------- 2 1.0 6.0 7 15
- 0.52625 1 3 cbr 210 ------- 2 1.0 6.0 7 15
r 0.52668 0 3 cbr 210 ------- 1 0.0 5.0 4 8
+ 0.52668 3 4 cbr 210 ------- 1 0.0 5.0 4 8
- 0.52668 3 4 cbr 210 ------- 1 0.0 5.0 4 8
r 0.52668 1 3 cbr 210 ------- 2 1.0 6.0 4 9
+ 0.52668 3 4 cbr 210 ------- 2 1.0 6.0 4 9
r 0.52711 3 4 cbr 210 ------- 1 0.0 5.0 1 2
+ 0.52711 4 5 cbr 210 ------- 1 0.0 5.0 1 2
- 0.52711 4 5 cbr 210 ------- 1 0.0 5.0 1 2
- 0.52836 3 4 cbr 210 ------- 2 1.0 6.0 4 9
r 0.52879 3 4 cbr 210 ------- 2 1.0 6.0 1 3
+ 0.52879 4 6 cbr 210 ------- 2 1.0 6.0 1 3
- 0.52879 4 6 cbr 210 ------- 2 1.0 6.0 1 3
+ 0.53 0 3 cbr 210 ------- 1 0.0 5.0 8 16
- 0.53 0 3 cbr 210 ------- 1 0.0 5.0 8 16
+ 0.53 1 3 cbr 210 ------- 2 1.0 6.0 8 17
- 0.53 1 3 cbr 210 ------- 2 1.0 6.0 8 17
r 0.53043 0 3 cbr 210 ------- 1 0.0 5.0 5 10
+ 0.53043 3 4 cbr 210 ------- 1 0.0 5.0 5 10
- 0.53043 3 4 cbr 210 ------- 1 0.0 5.0 5 10
r 0.53043 1 3 cbr 210 ------- 2 1.0 6.0 5 11
+ 0.53043 3 4 cbr 210 ------- 2 1.0 6.0 5 11
r 0.53086 3 4 cbr 210 ------- 1 0.0 5.0 2 4
+ 0.53086 4 5 cbr 210 ------- 1 0.0 5.0 2 4
- 0.53086 4 5 cbr 210 ------- 1 0.0 5.0 2 4
- 0.53211 3 4 cbr 210 ------- 2 1.0 6.0 5 11
r 0.53254 3 4 cbr 210 ------- 2 1.0 6.0 2 5
+ 0.53254 4 6 cbr 210 ------- 2 1.0 6.0 2 5
- 0.53254 4 6 cbr 210 ------- 2 1.0 6.0 2 5
+ 0.53375 0 3 cbr 210 ------- 1 0.0 5.0 9 18
- 0.53375 0 3 cbr 210 ------- 1 0.0 5.0 9 18
+ 0.53375 1 3 cbr 210 ------- 2 1.0 6.0 9 19
- 0.53375 1 3 cbr 210 ------- 2 1.0 6.0 9 19
r 0.53418 0 3 cbr 210 ------- 1 0.0 5.0 6 12
+ 0.53418 3 4 cbr 210 ------- 1 0.0 5.0 6 12
- 0.53418 3 4 cbr 210 ------- 1 0.0 5.0 6 12
r 0.53418 1 3 cbr 210 ------- 2 1.0 6.0 6 13
+ 0.53418 3 4 cbr 210 ------- 2 1.0 6.0 6 13
r 0.53461 3 4 cbr 210 ------- 1 0.0 5.0 3 6
+ 0.53461 4 5 cbr 210 ------- 1 0.0 5.0 3 6
- 0.53461 4 5 cbr 210 ------- 1 0.0 5.0 3 6
r 0.53504 4 5 cbr 210 ------- 1 0.0 5.0 0 0
- 0.53586 3 4 cbr 210 ------- 2 1.0 6.0 6 13
r 0.53629 3 4 cbr 210 ------- 2 1.0 6.0 3 7
+ 0.53629 4 6 cbr 210 ------- 2 1.0 6.0 3 7
- 0.53629 4 6 cbr 210 ------- 2 1.0 6.0 3 7
r 0.53672 4 6 cbr 210 ------- 2 1.0 6.0 0 1
+ 0.5375 0 3 cbr 210 ------- 1 0.0 5.0 10 20
- 0.5375 0 3 cbr 210 ------- 1 0.0 5.0 10 20
+ 0.5375 1 3 cbr 210 ------- 2 1.0 6.0 10 21
- 0.5375 1 3 cbr 210 ------- 2 1.0 6.0 10 21
r 0.53793 0 3 cbr 210 ------- 1 0.0 5.0 7 14
+ 0.53793 3 4 cbr 210 ------- 1 0.0 5.0 7 14
- 0.53793 3 4 cbr 210 ------- 1 0.0 5.0 7 14
r 0.53793 1 3 cbr 210 ------- 2 1.0 6.0 7 15
+ 0.53793 3 4 cbr 210 ------- 2 1.0 6.0 7 15
r 0.53836 3 4 cbr 210 ------- 1 0.0 5.0 4 8
+ 0.53836 4 5 cbr 210 ------- 1 0.0 5.0 4 8
- 0.53836 4 5 cbr 210 ------- 1 0.0 5.0 4 8
r 0.53879 4 5 cbr 210 ------- 1 0.0 5.0 1 2
- 0.53961 3 4 cbr 210 ------- 2 1.0 6.0 7 15
r 0.54004 3 4 cbr 210 ------- 2 1.0 6.0 4 9
+ 0.54004 4 6 cbr 210 ------- 2 1.0 6.0 4 9
- 0.54004 4 6 cbr 210 ------- 2 1.0 6.0 4 9
r 0.54047 4 6 cbr 210 ------- 2 1.0 6.0 1 3
+ 0.54125 0 3 cbr 210 ------- 1 0.0 5.0 11 22
- 0.54125 0 3 cbr 210 ------- 1 0.0 5.0 11 22
+ 0.54125 1 3 cbr 210 ------- 2 1.0 6.0 11 23
- 0.54125 1 3 cbr 210 ------- 2 1.0 6.0 11 23
r 0.54168 0 3 cbr 210 ------- 1 0.0 5.0 8 16
+ 0.54168 3 4 cbr 210 ------- 1 0.0 5.0 8 16
- 0.54168 3 4 cbr 210 ------- 1 0.0 5.0 8 16
r 0.54168 1 3 cbr 210 ------- 2 1.0 6.0 8 17
+ 0.54168 3 4 cbr 210 ------- 2 1.0 6.0 8 17
r 0.54211 3 4 cbr 210 ------- 1 0.0 5.0 5 10
+ 0.54211 4 5 cbr 210 ------- 1 0.0 5.0 5 10
- 0.54211 4 5 cbr 210 ------- 1 0.0 5.0 5 10
r 0.54254 4 5 cbr 210 ------- 1 0.0 5.0 2 4
- 0.54336 3 4 cbr 210 ------- 2 1.0 6.0 8 17
r 0.54379 3 4 cbr 210 ------- 2 1.0 6.0 5 11
+ 0.54379 4 6 cbr 210 ------- 2 1.0 6.0 5 11
- 0.54379 4 6 cbr 210 ------- 2 1.0 6.0 5 11
r 0.54422 4 6 cbr 210 ------- 2 1.0 6.0 2 5
+ 0.545 0 3 cbr 210 ------- 1 0.0 5.0 12 24
- 0.545 0 3 cbr 210 ------- 1 0.0 5.0 12 24
+ 0.545 1 3 cbr 210 ------- 2 1.0 6.0 12 25
- 0.545 1 3 cbr 210 ------- 2 1.0 6.0 12 25
r 0.54543 0 3 cbr 210 ------- 1 0.0 5.0 9 18
+ 0.54543 3 4 cbr 210 ------- 1 0.0 5.0 9 18
- 0.54543 3 4 cbr 210 ------- 1 0.0 5.0 9 18
r 0.54543 1 3 cbr 210 ------- 2 1.0 6.0 9 19
+ 0.54543 3 4 cbr 210 ------- 2 1.0 6.0 9 19
r 0.54586 3 4 cbr 210 ------- 1 0.0 5.0 6 12
+ 0.54586 4 5 cbr 210 ------- 1 0.0 5.0 6 12
- 0.54586 4 5 cbr 210 ------- 1 0.0 5.0 6 12
r 0.54629 4 5 cbr 210 ------- 1 0.0 5.0 3 6
- 0.54711 3 4 cbr 210 ------- 2 1.0 6.0 9 19
r 0.54754 3 4 cbr 210 ------- 2 1.0 6.0 6 13
+ 0.54754 4 6 cbr 210 ------- 2 1.0 6.0 6 13
- 0.54754 4 6 cbr 210 ------- 2 1.0 6.0 6 13
r 0.54797 4 6 cbr 210 ------- 2 1.0 6.0 3 7
+ 0.54875 0 3 cbr 210 ------- 1 0.0 5.0 13 26
- 0.54875 0 3 cbr 210 ------- 1 0.0 5.0 13 26
+ 0.54875 1 3 cbr 210 ------- 2 1.0 6.0 13 27
- 0.54875 1 3 cbr 210 ------- 2 1.0 6.0 13 27
r 0.54918 0 3 cbr 210 ------- 1 0.0 5.0 10 20
+ 0.54918 3 4 cbr 210 ------- 1 0.0 5.0 10 20
- 0.54918 3 4 cbr 210 ------- 1 0.0 5.0 10 20
r 0.54918 1 3 cbr 210 ------- 2 1.0 6.0 10 21
+ 0.54918 3 4 cbr 210 ------- 2 1.0 6.0 10 21
r 0.54961 3 4 cbr 210 ------- 1 0.0 5.0 7 14
+ 0.54961 4 5 cbr 210 ------- 1 0.0 5.0 7 14
- 0.54961 4 5 cbr 210 ------- 1 0.0 5.0 7 14
r 0.55004 4 5 cbr 210 ------- 1 0.0 5.0 4 8
- 0.55086 3 4 cbr 210 ------- 2 1.0 6.0 10 21
r 0.55129 3 4 cbr 210 ------- 2 1.0 6.0 7 15
+ 0.55129 4 6 cbr 210 ------- 2 1.0 6.0 7 15
- 0.55129 4 6 cbr 210 ------- 2 1.0 6.0 7 15
r 0.55172 4 6 cbr 210 ------- 2 1.0 6.0 4 9
+ 0.5525 0 3 cbr 210 ------- 1 0.0 5.0 14 28
- 0.5525 0 3 cbr 210 ------- 1 0.0 5.0 14 28
+ 0.5525 1 3 cbr 210 ------- 2 1.0 6.0 14 29
- 0.5525 1 3 cbr 210 ------- 2 1.0 6.0 14 29
r 0.55293 0 3 cbr 210 ------- 1 0.0 5.0 11 22
+ 0.55293 3 4 cbr 210 ------- 1 0.0 5.0 11 22
- 0.55293 3 4 cbr 210 ------- 1 0.0 5.0 11 22
r 0.55293 1 3 cbr 210 ------- 2 1.0 6.0 11 23
+ 0.55293 3 4 cbr 210 ------- 2 1.0 6.0 11 23
r 0.55336 3 4 cbr 210 ------- 1 0.0 5.0 8 16
+ 0.55336 4 5 cbr 210 ------- 1 0.0 5.0 8 16
- 0.55336 4 5 cbr 210 ------- 1 0.0 5.0 8 16
r 0.55379 4 5 cbr 210 ------- 1 0.0 5.0 5 10
- 0.55461 3 4 cbr 210 ------- 2 1.0 6.0 11 23
r 0.55504 3 4 cbr 210 ------- 2 1.0 6.0 8 17
+ 0.55504 4 6 cbr 210 ------- 2 1.0 6.0 8 17
- 0.55504 4 6 cbr 210 ------- 2 1.0 6.0 8 17
r 0.55547 4 6 cbr 210 ------- 2 1.0 6.0 5 11
+ 0.55625 0 3 cbr 210 ------- 1 0.0 5.0 15 30
- 0.55625 0 3 cbr 210 ------- 1 0.0 5.0 15 30
+ 0.55625 1 3 cbr 210 ------- 2 1.0 6.0 15 31
- 0.55625 1 3 cbr 210 ------- 2 1.0 6.0 15 31
r 0.55668 0 3 cbr 210 ------- 1 0.0 5.0 12 24
+ 0.55668 3 4 cbr 210 ------- 1 0.0 5.0 12 24
- 0.55668 3 4 cbr 210 ------- 1 0.0 5.0 12 24
r 0.55668 1 3 cbr 210 ------- 2 1.0 6.0 12 25
+ 0.55668 3 4 cbr 210 ------- 2 1.0 6.0 12 25
r 0.55711 3 4 cbr 210 ------- 1 0.0 5.0 9 18
+ 0.55711 4 5 cbr 210 ------- 1 0.0 5.0 9 18
- 0.55711 4 5 cbr 210 ------- 1 0.0 5.0 9 18
r 0.55754 4 5 cbr 210 ------- 1 0.0 5.0 6 12
- 0.55836 3 4 cbr 210 ------- 2 1.0 6.0 12 25
r 0.55879 3 4 cbr 210 ------- 2 1.0 6.0 9 19
+ 0.55879 4 6 cbr 210 ------- 2 1.0 6.0 9 19
- 0.55879 4 6 cbr 210 ------- 2 1.0 6.0 9 19
r 0.55922 4 6 cbr 210 ------- 2 1.0 6.0 6 13
+ 0.56 0 3 cbr 210 ------- 1 0.0 5.0 16 32
- 0.56 0 3 cbr 210 ------- 1 0.0 5.0 16 32
+ 0.56 1 3 cbr 210 ------- 2 1.0 6.0 16 33
- 0.56 1 3 cbr 210 ------- 2 1.0 6.0 16 33
r 0.56043 0 3 cbr 210 ------- 1 0.0 5.0 13 26
+ 0.56043 3 4 cbr 210 ------- 1 0.0 5.0 13 26
- 0.56043 3 4 cbr 210 ------- 1 0.0 5.0 13 26
r 0.56043 1 3 cbr 210 ------- 2 1.0 6.0 13 27
+ 0.56043 3 4 cbr 210 ------- 2 1.0 6.0 13 27
r 0.56086 3 4 cbr 210 ------- 1 0.0 5.0 10 20
+ 0.56086 4 5 cbr 210 ------- 1 0.0 5.0 10 20
- 0.56086 4 5 cbr 210 ------- 1 0.0 5.0 10 20
r 0.56129 4 5 cbr 210 ------- 1 0.0 5.0 7 14
- 0.56211 3 4 cbr 210 ------- 2 1.0 6.0 13 27
r 0.56254 3 4 cbr 210 ------- 2 1.0 6.0 10 21
+ 0.56254 4 6 cbr 210 ------- 2 1.0 6.0 10 21
- 0.56254 4 6 cbr 210 ------- 2 1.0 6.0 10 21
r 0.56297 4 6 cbr 210 ------- 2 1.0 6.0 7 15
+ 0.56375 0 3 cbr 210 ------- 1 0.0 5.0 17 34
- 0.56375 0 3 cbr 210 ------- 1 0.0 5.0 17 34
+ 0.56375 1 3 cbr 210 ------- 2 1.0 6.0 17 35
- 0.56375 1 3 cbr 210 ------- 2 1.0 6.0 17 35
r 0.56418 0 3 cbr 210 ------- 1 0.0 5.0 14 28
+ 0.56418 3 4 cbr 210 ------- 1 0.0 5.0 14 28
- 0.56418 3 4 cbr 210 ------- 1 0.0 5.0 14 28
r 0.56418 1 3 cbr 210 ------- 2 1.0 6.0 14 29
+ 0.56418 3 4 cbr 210 ------- 2 1.0 6.0 14 29
r 0.56461 3 4 cbr 210 ------- 1 0.0 5.0 11 22
+ 0.56461 4 5 cbr 210 ------- 1 0.0 5.0 11 22
- 0.56461 4 5 cbr 210 ------- 1 0.0 5.0 11 22
r 0.56504 4 5 cbr 210 ------- 1 0.0 5.0 8 16
- 0.56586 3 4 cbr 210 ------- 2 1.0 6.0 14 29
r 0.56629 3 4 cbr 210 ------- 2 1.0 6.0 11 23
+ 0.56629 4 6 cbr 210 ------- 2 1.0 6.0 11 23
- 0.56629 4 6 cbr 210 ------- 2 1.0 6.0 11 23
r 0.56672 4 6 cbr 210 ------- 2 1.0 6.0 8 17
+ 0.5675 0 3 cbr 210 ------- 1 0.0 5.0 18 36
- 0.5675 0 3 cbr 210 ------- 1 0.0 5.0 18 36
+ 0.5675 1 3 cbr 210 ------- 2 1.0 6.0 18 37
- 0.5675 1 3 cbr 210 ------- 2 1.0 6.0 18 37
r 0.56793 0 3 cbr 210 ------- 1 0.0 5.0 15 30
+ 0.56793 3 4 cbr 210 ------- 1 0.0 5.0 15 30
- 0.56793 3 4 cbr 210 ------- 1 0.0 5.0 15 30
r 0.56793 1 3 cbr 210 ------- 2 1.0 6.0 15 31
+ 0.56793 3 4 cbr 210 ------- 2 1.0 6.0 15 31
r 0.56836 3 4 cbr 210 ------- 1 0.0 5.0 12 24
+ 0.56836 4 5 cbr 210 ------- 1 0.0 5.0 12 24
- 0.56836 4 5 cbr 210 ------- 1 0.0 5.0 12 24
r 0.56879 4 5 cbr 210 ------- 1 0.0 5.0 9 18
- 0.56961 3 4 cbr 210 ------- 2 1.0 6.0 15 31
r 0.57004 3 4 cbr 210 ------- 2 1.0 6.0 12 25
+ 0.57004 4 6 cbr 210 ------- 2 1.0 6.0 12 25
- 0.57004 4 6 cbr 210 ------- 2 1.0 6.0 12 25
r 0.57047 4 6 cbr 210 ------- 2 1.0 6.0 9 19
+ 0.57125 0 3 cbr 210 ------- 1 0.0 5.0 19 38
- 0.57125 0 3 cbr 210 ------- 1 0.0 5.0 19 38
+ 0.57125 1 3 cbr 210 ------- 2 1.0 6.0 19 39
- 0.57125 1 3 cbr 210 ------- 2 1.0 6.0 19 39
r 0.57168 0 3 cbr 210 ------- 1 0.0 5.0 16 32
+ 0.57168 3 4 cbr 210 ------- 1 0.0 5.0 16 32
- 0.57168 3 4 cbr 210 ------- 1 0.0 5.0 16 32
r 0.57168 1 3 cbr 210 ------- 2 1.0 6.0 16 33
+ 0.57168 3 4 cbr 210 ------- 2 1.0 6.0 16 33
r 0.57211 3 4 cbr 210 ------- 1 0.0 5.0 13 26
+ 0.57211 4 5 cbr 210 ------- 1 0.0 5.0 13 26
- 0.57211 4 5 cbr 210 ------- 1 0.0 5.0 13 26
r 0.57254 4 5 cbr 210 ------- 1 0.0 5.0 10 20
- 0.57336 3 4 cbr 210 ------- 2 1.0 6.0 16 33
r 0.57379 3 4 cbr 210 ------- 2 1.0 6.0 13 27
+ 0.57379 4 6 cbr 210 ------- 2 1.0 6.0 13 27
- 0.57379 4 6 cbr 210 ------- 2 1.0 6.0 13 27
r 0.57422 4 6 cbr 210 ------- 2 1.0 6.0 10 21
+ 0.575 0 3 cbr 210 ------- 1 0.0 5.0 20 40
- 0.575 0 3 cbr 210 ------- 1 0.0 5.0 20 40
+ 0.575 1 3 cbr 210 ------- 2 1.0 6.0 20 41
- 0.575 1 3 cbr 210 ------- 2 1.0 6.0 20 41
r 0.57543 0 3 cbr 210 ------- 1 0.0 5.0 17 34
+ 0.57543 3 4 cbr 210 ------- 1 0.0 5.0 17 34
- 0.57543 3 4 cbr 210 ------- 1 0.0 5.0 17 34
r 0.57543 1 3 cbr 210 ------- 2 1.0 6.0 17 35
+ 0.57543 3 4 cbr 210 ------- 2 1.0 6.0 17 35
r 0.57586 3 4 cbr 210 ------- 1 0.0 5.0 14 28
+ 0.57586 4 5 cbr 210 ------- 1 0.0 5.0 14 28
- 0.57586 4 5 cbr 210 ------- 1 0.0 5.0 14 28
r 0.57629 4 5 cbr 210 ------- 1 0.0 5.0 11 22
- 0.57711 3 4 cbr 210 ------- 2 1.0 6.0 17 35
r 0.57754 3 4 cbr 210 ------- 2 1.0 6.0 14 29
+ 0.57754 4 6 cbr 210 ------- 2 1.0 6.0 14 29
- 0.57754 4 6 cbr 210 ------- 2 1.0 6.0 14 29
r 0.57797 4 6 cbr 210 ------- 2 1.0 6.0 11 23
+ 0.57875 0 3 cbr 210 ------- 1 0.0 5.0 21 42
- 0.57875 0 3 cbr 210 ------- 1 0.0 5.0 21 42
+ 0.57875 1 3 cbr 210 ------- 2 1.0 6.0 21 43
- 0.57875 1 3 cbr 210 ------- 2 1.0 6.0 21 43
r 0.57918 0 3 cbr 210 ------- 1 0.0 5.0 18 36
+ 0.57918 3 4 cbr 210 ------- 1 0.0 5.0 18 36
- 0.57918 3 4 cbr 210 ------- 1 0.0 5.0 18 36
r 0.57918 1 3 cbr 210 ------- 2 1.0 6.0 18 37
+ 0.57918 3 4 cbr 210 ------- 2 1.0 6.0 18 37
r 0.57961 3 4 cbr 210 ------- 1 0.0 5.0 15 30
+ 0.57961 4 5 cbr 210 ------- 1 0.0 5.0 15 30
- 0.57961 4 5 cbr 210 ------- 1 0.0 5.0 15 30
r 0.58004 4 5 cbr 210 ------- 1 0.0 5.0 12 24
- 0.58086 3 4 cbr 210 ------- 2 1.0 6.0 18 37
r 0.58129 3 4 cbr 210 ------- 2 1.0 6.0 15 31
+ 0.58129 4 6 cbr 210 ------- 2 1.0 6.0 15 31
- 0.58129 4 6 cbr 210 ------- 2 1.0 6.0 15 31
r 0.58172 4 6 cbr 210 ------- 2 1.0 6.0 12 25
+ 0.5825 0 3 cbr 210 ------- 1 0.0 5.0 22 44
- 0.5825 0 3 cbr 210 ------- 1 0.0 5.0 22 44
+ 0.5825 1 3 cbr 210 ------- 2 1.0 6.0 22 45
- 0.5825 1 3 cbr 210 ------- 2 1.0 6.0 22 45
r 0.58293 0 3 cbr 210 ------- 1 0.0 5.0 19 38
+ 0.58293 3 4 cbr 210 ------- 1 0.0 5.0 19 38
- 0.58293 3 4 cbr 210 ------- 1 0.0 5.0 19 38
r 0.58293 1 3 cbr 210 ------- 2 1.0 6.0 19 39
+ 0.58293 3 4 cbr 210 ------- 2 1.0 6.0 19 39
r 0.58336 3 4 cbr 210 ------- 1 0.0 5.0 16 32
+ 0.58336 4 5 cbr 210 ------- 1 0.0 5.0 16 32
- 0.58336 4 5 cbr 210 ------- 1 0.0 5.0 16 32
r 0.58379 4 5 cbr 210 ------- 1 0.0 5.0 13 26
- 0.58461 3 4 cbr 210 ------- 2 1.0 6.0 19 39
r 0.58504 3 4 cbr 210 ------- 2 1.0 6.0 16 33
+ 0.58504 4 6 cbr 210 ------- 2 1.0 6.0 16 33
- 0.58504 4 6 cbr 210 ------- 2 1.0 6.0 16 33
r 0.58547 4 6 cbr 210 ------- 2 1.0 6.0 13 27
+ 0.58625 0 3 cbr 210 ------- 1 0.0 5.0 23 46
- 0.58625 0 3 cbr 210 ------- 1 0.0 5.0 23 46
+ 0.58625 1 3 cbr 210 ------- 2 1.0 6.0 23 47
- 0.58625 1 3 cbr 210 ------- 2 1.0 6.0 23 47
r 0.58668 0 3 cbr 210 ------- 1 0.0 5.0 20 40
+ 0.58668 3 4 cbr 210 ------- 1 0.0 5.0 20 40
- 0.58668 3 4 cbr 210 ------- 1 0.0 5.0 20 40
r 0.58668 1 3 cbr 210 ------- 2 1.0 6.0 20 41
+ 0.58668 3 4 cbr 210 ------- 2 1.0 6.0 20 41
r 0.58711 3 4 cbr 210 ------- 1 0.0 5.0 17 34
+ 0.58711 4 5 cbr 210 ------- 1 0.0 5.0 17 34
- 0.58711 4 5 cbr 210 ------- 1 0.0 5.0 17 34
r 0.58754 4 5 cbr 210 ------- 1 0.0 5.0 14 28
- 0.58836 3 4 cbr 210 ------- 2 1.0 6.0 20 41
r 0.58879 3 4 cbr 210 ------- 2 1.0 6.0 17 35
+ 0.58879 4 6 cbr 210 ------- 2 1.0 6.0 17 35
- 0.58879 4 6 cbr 210 ------- 2 1.0 6.0 17 35
r 0.58922 4 6 cbr 210 ------- 2 1.0 6.0 14 29
+ 0.59 0 3 cbr 210 ------- 1 0.0 5.0 24 48
- 0.59 0 3 cbr 210 ------- 1 0.0 5.0 24 48
+ 0.59 1 3 cbr 210 ------- 2 1.0 6.0 24 49
- 0.59 1 3 cbr 210 ------- 2 1.0 6.0 24 49
r 0.59043 0 3 cbr 210 ------- 1 0.0 5.0 21 42
+ 0.59043 3 4 cbr 210 ------- 1 0.0 5.0 21 42
- 0.59043 3 4 cbr 210 ------- 1 0.0 5.0 21 42
r 0.59043 1 3 cbr 210 ------- 2 1.0 6.0 21 43
+ 0.59043 3 4 cbr 210 ------- 2 1.0 6.0 21 43
r 0.59086 3 4 cbr 210 ------- 1 0.0 5.0 18 36
+ 0.59086 4 5 cbr 210 ------- 1 0.0 5.0 18 36
- 0.59086 4 5 cbr 210 ------- 1 0.0 5.0 18 36
r 0.59129 4 5 cbr 210 ------- 1 0.0 5.0 15 30
- 0.59211 3 4 cbr 210 ------- 2 1.0 6.0 21 43
r 0.59254 3 4 cbr 210 ------- 2 1.0 6.0 18 37
+ 0.59254 4 6 cbr 210 ------- 2 1.0 6.0 18 37
- 0.59254 4 6 cbr 210 ------- 2 1.0 6.0 18 37
r 0.59297 4 6 cbr 210 ------- 2 1.0 6.0 15 31
+ 0.59375 0 3 cbr 210 ------- 1 0.0 5.0 25 50
- 0.59375 0 3 cbr 210 ------- 1 0.0 5.0 25 50
+ 0.59375 1 3 cbr 210 ------- 2 1.0 6.0 25 51
- 0.59375 1 3 cbr 210 ------- 2 1.0 6.0 25 51
r 0.59418 0 3 cbr 210 ------- 1 0.0 5.0 22 44
+ 0.59418 3 4 cbr 210 ------- 1 0.0 5.0 22 44
- 0.59418 3 4 cbr 210 ------- 1 0.0 5.0 22 44
r 0.59418 1 3 cbr 210 ------- 2 1.0 6.0 22 45
+ 0.59418 3 4 cbr 210 ------- 2 1.0 6.0 22 45
r 0.59461 3 4 cbr 210 ------- 1 0.0 5.0 19 38
+ 0.59461 4 5 cbr 210 ------- 1 0.0 5.0 19 38
- 0.59461 4 5 cbr 210 ------- 1 0.0 5.0 19 38
r 0.59504 4 5 cbr 210 ------- 1 0.0 5.0 16 32
- 0.59586 3 4 cbr 210 ------- 2 1.0 6.0 22 45
r 0.59629 3 4 cbr 210 ------- 2 1.0 6.0 19 39
+ 0.59629 4 6 cbr 210 ------- 2 1.0 6.0 19 39
- 0.59629 4 6 cbr 210 ------- 2 1.0 6.0 19 39
r 0.59672 4 6 cbr 210 ------- 2 1.0 6.0 16 33
+ 0.5975 0 3 cbr 210 ------- 1 0.0 5.0 26 52
- 0.5975 0 3 cbr 210 ------- 1 0.0 5.0 26 52
+ 0.5975 1 3 cbr 210 ------- 2 1.0 6.0 26 53
- 0.5975 1 3 cbr 210 ------- 2 1.0 6.0 26 53
r 0.59793 0 3 cbr 210 ------- 1 0.0 5.0 23 46
+ 0.59793 3 4 cbr 210 ------- 1 0.0 5.0 23 46
- 0.59793 3 4 cbr 210 ------- 1 0.0 5.0 23 46
r 0.59793 1 3 cbr 210 ------- 2 1.0 6.0 23 47
+ 0.59793 3 4 cbr 210 ------- 2 1.0 6.0 23 47
r 0.59836 3 4 cbr 210 ------- 1 0.0 5.0 20 40
+ 0.59836 4 5 cbr 210 ------- 1 0.0 5.0 20 40
- 0.59836 4 5 cbr 210 ------- 1 0.0 5.0 20 40
r 0.59879 4 5 cbr 210 ------- 1 0.0 5.0 17 34
- 0.59961 3 4 cbr 210 ------- 2 1.0 6.0 23 47
r 0.60004 3 4 cbr 210 ------- 2 1.0 6.0 20 41
+ 0.60004 4 6 cbr 210 ------- 2 1.0 6.0 20 41
- 0.60004 4 6 cbr 210 ------- 2 1.0 6.0 20 41
r 0.60047 4 6 cbr 210 ------- 2 1.0 6.0 17 35
+ 0.60125 0 3 cbr 210 ------- 1 0.0 5.0 27 54
- 0.60125 0 3 cbr 210 ------- 1 0.0 5.0 27 54
+ 0.60125 1 3 cbr 210 ------- 2 1.0 6.0 27 55
- 0.60125 1 3 cbr 210 ------- 2 1.0 6.0 27 55
r 0.60168 0 3 cbr 210 ------- 1 0.0 5.0 24 48
+ 0.60168 3 4 cbr 210 ------- 1 0.0 5.0 24 48
- 0.60168 3 4 cbr 210 ------- 1 0.0 5.0 24 48
r 0.60168 1 3 cbr 210 ------- 2 1.0 6.0 24 49
+ 0.60168 3 4 cbr 210 ------- 2 1.0 6.0 24 49
r 0.60211 3 4 cbr 210 ------- 1 0.0 5.0 21 42
+ 0.60211 4 5 cbr 210 ------- 1 0.0 5.0 21 42
- 0.60211 4 5 cbr 210 ------- 1 0.0 5.0 21 42
r 0.60254 4 5 cbr 210 ------- 1 0.0 5.0 18 36
- 0.60336 3 4 cbr 210 ------- 2 1.0 6.0 24 49
r 0.60379 3 4 cbr 210 ------- 2 1.0 6.0 21 43
+ 0.60379 4 6 cbr 210 ------- 2 1.0 6.0 21 43
- 0.60379 4 6 cbr 210 ------- 2 1.0 6.0 21 43
r 0.60422 4 6 cbr 210 ------- 2 1.0 6.0 18 37
+ 0.605 0 3 cbr 210 ------- 1 0.0 5.0 28 56
- 0.605 0 3 cbr 210 ------- 1 0.0 5.0 28 56
+ 0.605 1 3 cbr 210 ------- 2 1.0 6.0 28 57
- 0.605 1 3 cbr 210 ------- 2 1.0 6.0 28 57
r 0.60543 0 3 cbr 210 ------- 1 0.0 5.0 25 50
+ 0.60543 3 4 cbr 210 ------- 1 0.0 5.0 25 50
- 0.60543 3 4 cbr 210 ------- 1 0.0 5.0 25 50
r 0.60543 1 3 cbr 210 ------- 2 1.0 6.0 25 51
+ 0.60543 3 4 cbr 210 ------- 2 1.0 6.0 25 51
r 0.60586 3 4 cbr 210 ------- 1 0.0 5.0 22 44
+ 0.60586 4 5 cbr 210 ------- 1 0.0 5.0 22 44
- 0.60586 4 5 cbr 210 ------- 1 0.0 5.0 22 44
r 0.60629 4 5 cbr 210 ------- 1 0.0 5.0 19 38
- 0.60711 3 4 cbr 210 ------- 2 1.0 6.0 25 51
r 0.60754 3 4 cbr 210 ------- 2 1.0 6.0 22 45
+ 0.60754 4 6 cbr 210 ------- 2 1.0 6.0 22 45
- 0.60754 4 6 cbr 210 ------- 2 1.0 6.0 22 45
r 0.60797 4 6 cbr 210 ------- 2 1.0 6.0 19 39
+ 0.60875 0 3 cbr 210 ------- 1 0.0 5.0 29 58
- 0.60875 0 3 cbr 210 ------- 1 0.0 5.0 29 58
+ 0.60875 1 3 cbr 210 ------- 2 1.0 6.0 29 59
- 0.60875 1 3 cbr 210 ------- 2 1.0 6.0 29 59
r 0.60918 0 3 cbr 210 ------- 1 0.0 5.0 26 52
+ 0.60918 3 4 cbr 210 ------- 1 0.0 5.0 26 52
- 0.60918 3 4 cbr 210 ------- 1 0.0 5.0 26 52
r 0.60918 1 3 cbr 210 ------- 2 1.0 6.0 26 53
+ 0.60918 3 4 cbr 210 ------- 2 1.0 6.0 26 53
r 0.60961 3 4 cbr 210 ------- 1 0.0 5.0 23 46
+ 0.60961 4 5 cbr 210 ------- 1 0.0 5.0 23 46
- 0.60961 4 5 cbr 210 ------- 1 0.0 5.0 23 46
r 0.61004 4 5 cbr 210 ------- 1 0.0 5.0 20 40
- 0.61086 3 4 cbr 210 ------- 2 1.0 6.0 26 53
r 0.61129 3 4 cbr 210 ------- 2 1.0 6.0 23 47
+ 0.61129 4 6 cbr 210 ------- 2 1.0 6.0 23 47
- 0.61129 4 6 cbr 210 ------- 2 1.0 6.0 23 47
r 0.61172 4 6 cbr 210 ------- 2 1.0 6.0 20 41
+ 0.6125 0 3 cbr 210 ------- 1 0.0 5.0 30 60
- 0.6125 0 3 cbr 210 ------- 1 0.0 5.0 30 60
+ 0.6125 1 3 cbr 210 ------- 2 1.0 6.0 30 61
- 0.6125 1 3 cbr 210 ------- 2 1.0 6.0 30 61
r 0.61293 0 3 cbr 210 ------- 1 0.0 5.0 27 54
+ 0.61293 3 4 cbr 210 ------- 1 0.0 5.0 27 54
- 0.61293 3 4 cbr 210 ------- 1 0.0 5.0 27 54
r 0.61293 1 3 cbr 210 ------- 2 1.0 6.0 27 55
+ 0.61293 3 4 cbr 210 ------- 2 1.0 6.0 27 55
r 0.61336 3 4 cbr 210 ------- 1 0.0 5.0 24 48
+ 0.61336 4 5 cbr 210 ------- 1 0.0 5.0 24 48
- 0.61336 4 5 cbr 210 ------- 1 0.0 5.0 24 48
r 0.61379 4 5 cbr 210 ------- 1 0.0 5.0 21 42
- 0.61461 3 4 cbr 210 ------- 2 1.0 6.0 27 55
r 0.61504 3 4 cbr 210 ------- 2 1.0 6.0 24 49
+ 0.61504 4 6 cbr 210 ------- 2 1.0 6.0 24 49
- 0.61504 4 6 cbr 210 ------- 2 1.0 6.0 24 49
r 0.61547 4 6 cbr 210 ------- 2 1.0 6.0 21 43
+ 0.61625 0 3 cbr 210 ------- 1 0.0 5.0 31 62
- 0.61625 0 3 cbr 210 ------- 1 0.0 5.0 31 62
+ 0.61625 1 3 cbr 210 ------- 2 1.0 6.0 31 63
- 0.61625 1 3 cbr 210 ------- 2 1.0 6.0 31 63
r 0.61668 0 3 cbr 210 ------- 1 0.0 5.0 28 56
+ 0.61668 3 4 cbr 210 ------- 1 0.0 5.0 28 56
- 0.61668 3 4 cbr 210 ------- 1 0.0 5.0 28 56
r 0.61668 1 3 cbr 210 ------- 2 1.0 6.0 28 57
+ 0.61668 3 4 cbr 210 ------- 2 1.0 6.0 28 57
r 0.61711 3 4 cbr 210 ------- 1 0.0 5.0 25 50
+ 0.61711 4 5 cbr 210 ------- 1 0.0 5.0 25 50
- 0.61711 4 5 cbr 210 ------- 1 0.0 5.0 25 50
r 0.61754 4 5 cbr 210 ------- 1 0.0 5.0 22 44
- 0.61836 3 4 cbr 210 ------- 2 1.0 6.0 28 57
r 0.61879 3 4 cbr 210 ------- 2 1.0 6.0 25 51
+ 0.61879 4 6 cbr 210 ------- 2 1.0 6.0 25 51
- 0.61879 4 6 cbr 210 ------- 2 1.0 6.0 25 51
r 0.61922 4 6 cbr 210 ------- 2 1.0 6.0 22 45
+ 0.62 0 3 cbr 210 ------- 1 0.0 5.0 32 64
- 0.62 0 3 cbr 210 ------- 1 0.0 5.0 32 64
+ 0.62 1 3 cbr 210 ------- 2 1.0 6.0 32 65
- 0.62 1 3 cbr 210 ------- 2 1.0 6.0 32 65
r 0.62043 0 3 cbr 210 ------- 1 0.0 5.0 29 58
+ 0.62043 3 4 cbr 210 ------- 1 0.0 5.0 29 58
- 0.62043 3 4 cbr 210 ------- 1 0.0 5.0 29 58
r 0.62043 1 3 cbr 210 ------- 2 1.0 6.0 29 59
+ 0.62043 3 4 cbr 210 ------- 2 1.0 6.0 29 59
r 0.62086 3 4 cbr 210 ------- 1 0.0 5.0 26 52
+ 0.62086 4 5 cbr 210 ------- 1 0.0 5.0 26 52
- 0.62086 4 5 cbr 210 ------- 1 0.0 5.0 26 52
r 0.62129 4 5 cbr 210 ------- 1 0.0 5.0 23 46
- 0.62211 3 4 cbr 210 ------- 2 1.0 6.0 29 59
r 0.62254 3 4 cbr 210 ------- 2 1.0 6.0 26 53
+ 0.62254 4 6 cbr 210 ------- 2 1.0 6.0 26 53
- 0.62254 4 6 cbr 210 ------- 2 1.0 6.0 26 53
r 0.62297 4 6 cbr 210 ------- 2 1.0 6.0 23 47
+ 0.62375 0 3 cbr 210 ------- 1 0.0 5.0 33 66
- 0.62375 0 3 cbr 210 ------- 1 0.0 5.0 33 66
+ 0.62375 1 3 cbr 210 ------- 2 1.0 6.0 33 67
- 0.62375 1 3 cbr 210 ------- 2 1.0 6.0 33 67
r 0.62418 0 3 cbr 210 ------- 1 0.0 5.0 30 60
+ 0.62418 3 4 cbr 210 ------- 1 0.0 5.0 30 60
- 0.62418 3 4 cbr 210 ------- 1 0.0 5.0 30 60
r 0.62418 1 3 cbr 210 ------- 2 1.0 6.0 30 61
+ 0.62418 3 4 cbr 210 ------- 2 1.0 6.0 30 61
r 0.62461 3 4 cbr 210 ------- 1 0.0 5.0 27 54
+ 0.62461 4 5 cbr 210 ------- 1 0.0 5.0 27 54
- 0.62461 4 5 cbr 210 ------- 1 0.0 5.0 27 54
r 0.62504 4 5 cbr 210 ------- 1 0.0 5.0 24 48
- 0.62586 3 4 cbr 210 ------- 2 1.0 6.0 30 61
r 0.62629 3 4 cbr 210 ------- 2 1.0 6.0 27 55
+ 0.62629 4 6 cbr 210 ------- 2 1.0 6.0 27 55
- 0.62629 4 6 cbr 210 ------- 2 1.0 6.0 27 55
r 0.62672 4 6 cbr 210 ------- 2 1.0 6.0 24 49
+ 0.6275 0 3 cbr 210 ------- 1 0.0 5.0 34 68
- 0.6275 0 3 cbr 210 ------- 1 0.0 5.0 34 68
+ 0.6275 1 3 cbr 210 ------- 2 1.0 6.0 34 69
- 0.6275 1 3 cbr 210 ------- 2 1.0 6.0 34 69
r 0.62793 0 3 cbr 210 ------- 1 0.0 5.0 31 62
+ 0.62793 3 4 cbr 210 ------- 1 0.0 5.0 31 62
- 0.62793 3 4 cbr 210 ------- 1 0.0 5.0 31 62
r 0.62793 1 3 cbr 210 ------- 2 1.0 6.0 31 63
+ 0.62793 3 4 cbr 210 ------- 2 1.0 6.0 31 63
r 0.62836 3 4 cbr 210 ------- 1 0.0 5.0 28 56
+ 0.62836 4 5 cbr 210 ------- 1 0.0 5.0 28 56
- 0.62836 4 5 cbr 210 ------- 1 0.0 5.0 28 56
r 0.62879 4 5 cbr 210 ------- 1 0.0 5.0 25 50
- 0.62961 3 4 cbr 210 ------- 2 1.0 6.0 31 63
r 0.63004 3 4 cbr 210 ------- 2 1.0 6.0 28 57
+ 0.63004 4 6 cbr 210 ------- 2 1.0 6.0 28 57
- 0.63004 4 6 cbr 210 ------- 2 1.0 6.0 28 57
r 0.63047 4 6 cbr 210 ------- 2 1.0 6.0 25 51
+ 0.63125 0 3 cbr 210 ------- 1 0.0 5.0 35 70
- 0.63125 0 3 cbr 210 ------- 1 0.0 5.0 35 70
+ 0.63125 1 3 cbr 210 ------- 2 1.0 6.0 35 71
- 0.63125 1 3 cbr 210 ------- 2 1.0 6.0 35 71
r 0.63168 0 3 cbr 210 ------- 1 0.0 5.0 32 64
+ 0.63168 3 4 cbr 210 ------- 1 0.0 5.0 32 64
- 0.63168 3 4 cbr 210 ------- 1 0.0 5.0 32 64
r 0.63168 1 3 cbr 210 ------- 2 1.0 6.0 32 65
+ 0.63168 3 4 cbr 210 ------- 2 1.0 6.0 32 65
r 0.63211 3 4 cbr 210 ------- 1 0.0 5.0 29 58
+ 0.63211 4 5 cbr 210 ------- 1 0.0 5.0 29 58
- 0.63211 4 5 cbr 210 ------- 1 0.0 5.0 29 58
r 0.63254 4 5 cbr 210 ------- 1 0.0 5.0 26 52
- 0.63336 3 4 cbr 210 ------- 2 1.0 6.0 32 65
r 0.63379 3 4 cbr 210 ------- 2 1.0 6.0 29 59
+ 0.63379 4 6 cbr 210 ------- 2 1.0 6.0 29 59
- 0.63379 4 6 cbr 210 ------- 2 1.0 6.0 29 59
r 0.63422 4 6 cbr 210 ------- 2 1.0 6.0 26 53
+ 0.635 0 3 cbr 210 ------- 1 0.0 5.0 36 72
- 0.635 0 3 cbr 210 ------- 1 0.0 5.0 36 72
+ 0.635 1 3 cbr 210 ------- 2 1.0 6.0 36 73
- 0.635 1 3 cbr 210 ------- 2 1.0 6.0 36 73
r 0.63543 0 3 cbr 210 ------- 1 0.0 5.0 33 66
+ 0.63543 3 4 cbr 210 ------- 1 0.0 5.0 33 66
- 0.63543 3 4 cbr 210 ------- 1 0.0 5.0 33 66
r 0.63543 1 3 cbr 210 ------- 2 1.0 6.0 33 67
+ 0.63543 3 4 cbr 210 ------- 2 1.0 6.0 33 67
r 0.63586 3 4 cbr 210 ------- 1 0.0 5.0 30 60
+ 0.63586 4 5 cbr 210 ------- 1 0.0 5.0 30 60
- 0.63586 4 5 cbr 210 ------- 1 0.0 5.0 30 60
r 0.63629 4 5 cbr 210 ------- 1 0.0 5.0 27 54
- 0.63711 3 4 cbr 210 ------- 2 1.0 6.0 33 67
r 0.63754 3 4 cbr 210 ------- 2 1.0 6.0 30 61
+ 0.63754 4 6 cbr 210 ------- 2 1.0 6.0 30 61
- 0.63754 4 6 cbr 210 ------- 2 1.0 6.0 30 61
r 0.63797 4 6 cbr 210 ------- 2 1.0 6.0 27 55
+ 0.63875 0 3 cbr 210 ------- 1 0.0 5.0 37 74
- 0.63875 0 3 cbr 210 ------- 1 0.0 5.0 37 74
+ 0.63875 1 3 cbr 210 ------- 2 1.0 6.0 37 75
- 0.63875 1 3 cbr 210 ------- 2 1.0 6.0 37 75
r 0.63918 0 3 cbr 210 ------- 1 0.0 5.0 34 68
+ 0.63918 3 4 cbr 210 ------- 1 0.0 5.0 34 68
- 0.63918 3 4 cbr 210 ------- 1 0.0 5.0 34 68
r 0.63918 1 3 cbr 210 ------- 2 1.0 6.0 34 69
+ 0.63918 3 4 cbr 210 ------- 2 1.0 6.0 34 69
r 0.63961 3 4 cbr 210 ------- 1 0.0 5.0 31 62
+ 0.63961 4 5 cbr 210 ------- 1 0.0 5.0 31 62
- 0.63961 4 5 cbr 210 ------- 1 0.0 5.0 31 62
r 0.64004 4 5 cbr 210 ------- 1 0.0 5.0 28 56
- 0.64086 3 4 cbr 210 ------- 2 1.0 6.0 34 69
r 0.64129 3 4 cbr 210 ------- 2 1.0 6.0 31 63
+ 0.64129 4 6 cbr 210 ------- 2 1.0 6.0 31 63
- 0.64129 4 6 cbr 210 ------- 2 1.0 6.0 31 63
r 0.64172 4 6 cbr 210 ------- 2 1.0 6.0 28 57
+ 0.6425 0 3 cbr 210 ------- 1 0.0 5.0 38 76
- 0.6425 0 3 cbr 210 ------- 1 0.0 5.0 38 76
+ 0.6425 1 3 cbr 210 ------- 2 1.0 6.0 38 77
- 0.6425 1 3 cbr 210 ------- 2 1.0 6.0 38 77
r 0.64293 0 3 cbr 210 ------- 1 0.0 5.0 35 70
+ 0.64293 3 4 cbr 210 ------- 1 0.0 5.0 35 70
- 0.64293 3 4 cbr 210 ------- 1 0.0 5.0 35 70
r 0.64293 1 3 cbr 210 ------- 2 1.0 6.0 35 71
+ 0.64293 3 4 cbr 210 ------- 2 1.0 6.0 35 71
r 0.64336 3 4 cbr 210 ------- 1 0.0 5.0 32 64
+ 0.64336 4 5 cbr 210 ------- 1 0.0 5.0 32 64
- 0.64336 4 5 cbr 210 ------- 1 0.0 5.0 32 64
r 0.64379 4 5 cbr 210 ------- 1 0.0 5.0 29 58
- 0.64461 3 4 cbr 210 ------- 2 1.0 6.0 35 71
r 0.64504 3 4 cbr 210 ------- 2 1.0 6.0 32 65
+ 0.64504 4 6 cbr 210 ------- 2 1.0 6.0 32 65
- 0.64504 4 6 cbr 210 ------- 2 1.0 6.0 32 65
r 0.64547 4 6 cbr 210 ------- 2 1.0 6.0 29 59
+ 0.64625 0 3 cbr 210 ------- 1 0.0 5.0 39 78
- 0.64625 0 3 cbr 210 ------- 1 0.0 5.0 39 78
+ 0.64625 1 3 cbr 210 ------- 2 1.0 6.0 39 79
- 0.64625 1 3 cbr 210 ------- 2 1.0 6.0 39 79
r 0.64668 0 3 cbr 210 ------- 1 0.0 5.0 36 72
+ 0.64668 3 4 cbr 210 ------- 1 0.0 5.0 36 72
- 0.64668 3 4 cbr 210 ------- 1 0.0 5.0 36 72
r 0.64668 1 3 cbr 210 ------- 2 1.0 6.0 36 73
+ 0.64668 3 4 cbr 210 ------- 2 1.0 6.0 36 73
r 0.64711 3 4 cbr 210 ------- 1 0.0 5.0 33 66
+ 0.64711 4 5 cbr 210 ------- 1 0.0 5.0 33 66
- 0.64711 4 5 cbr 210 ------- 1 0.0 5.0 33 66
r 0.64754 4 5 cbr 210 ------- 1 0.0 5.0 30 60
- 0.64836 3 4 cbr 210 ------- 2 1.0 6.0 36 73
r 0.64879 3 4 cbr 210 ------- 2 1.0 6.0 33 67
+ 0.64879 4 6 cbr 210 ------- 2 1.0 6.0 33 67
- 0.64879 4 6 cbr 210 ------- 2 1.0 6.0 33 67
r 0.64922 4 6 cbr 210 ------- 2 1.0 6.0 30 61
+ 0.65 0 3 cbr 210 ------- 1 0.0 5.0 40 80
- 0.65 0 3 cbr 210 ------- 1 0.0 5.0 40 80
+ 0.65 1 3 cbr 210 ------- 2 1.0 6.0 40 81
- 0.65 1 3 cbr 210 ------- 2 1.0 6.0 40 81
r 0.65043 0 3 cbr 210 ------- 1 0.0 5.0 37 74
+ 0.65043 3 4 cbr 210 ------- 1 0.0 5.0 37 74
- 0.65043 3 4 cbr 210 ------- 1 0.0 5.0 37 74
r 0.65043 1 3 cbr 210 ------- 2 1.0 6.0 37 75
+ 0.65043 3 4 cbr 210 ------- 2 1.0 6.0 37 75
r 0.65086 3 4 cbr 210 ------- 1 0.0 5.0 34 68
+ 0.65086 4 5 cbr 210 ------- 1 0.0 5.0 34 68
- 0.65086 4 5 cbr 210 ------- 1 0.0 5.0 34 68
r 0.65129 4 5 cbr 210 ------- 1 0.0 5.0 31 62